/*--------------------------------*- C++ -*----------------------------------*\
  =========                 |
  \\      /  F ield         | OpenFOAM: The Open Source CFD Toolbox
   \\    /   O peration     | Website:  https://openfoam.org
    \\  /    A nd           | Version:  8
     \\/     M anipulation  |
\*---------------------------------------------------------------------------*/
FoamFile
{
    version     2.0;
    format      ascii;
    class       volScalarField;
    location    "1.2e-05";
    object      H2;
}
// * * * * * * * * * * * * * * * * * * * * * * * * * * * * * * * * * * * * * //

dimensions      [0 0 0 0 0 0 0];

internalField   nonuniform List<scalar> 
49986
(
1
1
1
1
1
1
1
1
1
1
1.00000000001
0.999999999992
1.0000000005
0.999999999095
0.999999996353
0.999999999817
0.914929064456
0.652026715731
1.00000001304
1.00000021545
1.00000136633
0.999999998848
0.999999997625
0.999999997391
0.999999998228
0.726570933004
0.999996137247
1.00000044824
0.999607555094
0.999989705229
0.717782846195
0.999999996521
1.00000145396
0.999958122959
0.803910726136
1.00168641979
0.999910403063
1.01709411589
1.01310722208
0.674280557385
0.999999985806
1.00000002166
1.00000073851
1.00000033701
1.00000025216
1.00000097716
1.00630455638
1.00235431025
0.776135039645
0.999999108841
0.999960252961
1.00031536712
0.999993867147
0.999885659678
1.00000091608
0.999747112989
1.00025500396
1.00036805906
1.00002217581
1.00006345058
0.999860010475
0.68884947656
1.01183180968
1.00770553496
1.00000000029
1.00000000263
0.999999994866
0.999983810091
1.00000033758
1.00000031898
1.00000735445
1.00000044037
0.99998670112
0.870265845453
1.01400951467
1.00927488435
0.973161910341
0.975832236457
0.658363489826
0.99899508535
1.00394854554
0.738667600452
0.99999872861
0.999968256785
0.999953822647
0.99990349581
0.999853422162
1.00000519267
0.709740586662
0.992615139546
0.996494377798
1.00000347879
1.00000162078
1.00000149382
1.01958944224
1.01728377279
0.840966950831
1.00033219224
1.00862781896
1.01219608023
1.00066892081
1.00456455733
1.00000825334
1.01575736094
1.03073159942
1.03164518441
1.02877913186
1.02980218682
1.01448744642
0.669311725938
0.979194323636
0.981899921893
1.00000012108
1.00000000045
0.999999991692
1.00505341171
1.01971017614
1.02155789586
1.01390948243
1.01738353729
1.00378618265
0.762448315427
1.01167154141
1.01463545627
1.00003015324
0.999880598905
0.999927590608
0.999780930427
0.9998509539
1.00014674794
0.999958700404
0.999999125296
1.00000077141
0.999950691236
0.99999012193
0.999844806478
0.985061101529
0.989167571077
0.697288279823
1.0104786969
1.02658463095
1.02755167743
1.02421466075
1.02557776716
1.00918711966
1.00000520102
1.00000256289
0.999996788912
1.00000030872
1.0000007315
1.00000136643
1.00000163431
1.00000037187
1.00000091564
1
1
1
1
1
1
1
1
1
1
0.999999999353
1.00000000046
1.00000118363
1.00000029996
1.00000072582
0.999999994153
0.644302781129
0.528631364721
1.00001199442
0.999969761638
0.999944514325
1.00000520058
0.58617259979
0.998911634604
0.999451887363
0.998248905114
0.998745386926
0.578260363804
1.00000703234
0.999889373195
0.999838376745
0.61795054435
1.0221993238
1.01829358108
1.03453157092
1.03172214538
0.549333362349
1.02679543237
1.0231846445
0.6096536803
0.999099151009
1.00126058287
1.00201031113
1.00065248846
1.0010135518
0.999286056284
0.998414458549
1.00406725129
1.00465253288
1.0023459888
1.00331720516
0.998547392291
0.555747153549
1.03070688048
1.02765930017
0.635547171221
0.967947054899
0.970239782988
0.919204249749
0.923498131151
0.534986838193
0.947733808245
0.951854052849
0.593765924042
0.569912978211
0.941530743911
0.945250217603
0.961553526868
0.963598755347
0.626503932419
1.0207717024
1.03389612819
1.03437978449
1.03232995841
1.03336606868
1.0196397584
1.03362486745
1.03522875042
1.03454513266
1.03551966478
1.03545267848
1.03273955047
0.542166552507
0.92778993825
0.930737945483
1.02587782327
1.03533864347
1.03560800918
1.03464139174
1.03510809886
1.02447026307
0.601699806426
0.954521580699
0.958183111063
0.933621209138
0.937085880896
0.562232579678
1.02978060312
1.03561299109
1.03554694777
1.03572322836
1.03571928849
1.02877380796
1
1
1
1
1
1
1
1
1.00000000001
0.99999999989
0.999999991147
0.99999999518
1.00000007444
1.00001420224
1.00001164125
1.0000024131
1.00000404188
0.999999997538
1.00001010683
1.00001288868
1.0000001612
0.521724886665
0.440245623619
1.00001664797
0.435683229837
0.381362286059
0.999964468799
0.999734731989
0.999657923546
1.00001891376
0.999218532082
0.998979410827
1.00000154467
0.480456334146
0.997765500102
0.998119658848
0.997792715536
0.997728186351
0.475334739159
1.00001882462
0.999445716059
0.999331981171
0.40857442443
0.998415951094
0.997860887529
0.999896561846
0.998590090702
0.405431140151
0.999986116567
0.998752002599
0.998541149775
0.504034002946
1.03771194445
1.03545661216
1.04380459868
1.04295492725
0.454019169581
0.42338874601
1.04473254908
1.04412057824
1.04310906374
1.04361688672
0.391896007158
1.04042761957
1.0384695833
0.498580492933
0.997881953903
1.00713649212
1.00806777082
1.00514738446
1.00601534025
0.997955369431
0.997753790097
1.01217899195
1.0131009865
1.00982254626
1.01098682778
0.997733045121
0.458303052927
1.04241513231
1.04097295238
1.044634701
1.04473156169
0.419404885345
0.9981560231
1.01682606538
1.0188029915
1.01459889036
1.01600316251
0.99807150122
0.999466191061
1.02566902268
1.02966056812
1.02092307596
1.02407370136
0.99909174638
0.394528685616
1.04402233106
1.04465323961
0.514706039415
0.910061890608
0.914715751154
0.84853194233
0.853104949099
0.444655864416
0.430874607311
0.838913188486
0.843835402518
0.776928642326
0.782068503412
0.385531100943
0.885034400153
0.889423813187
0.486159155289
0.469847719271
0.875996814734
0.880722002449
0.812430140924
0.816227919079
0.411417683814
0.40160791419
0.803461640143
0.808220519628
0.902311929596
0.9059969005
0.508904512649
1.03699953243
1.03299086233
1.0323335274
1.03409201897
1.03353956168
1.03620019341
1.04361928662
1.02010095777
1.01927812303
1.02337664248
1.02146598911
1.04337306797
0.44964479076
0.857969749089
0.862379345323
0.830449198471
0.834564458474
0.426829382485
1.04458249437
1.01412765621
1.01262362647
1.01749671705
1.01593789698
1.04431949151
1.04325214542
0.992830402709
0.991143920053
0.995843620216
0.994366218791
1.04338937734
0.389010421686
0.786387335329
0.790502709916
1.03967574057
1.03005496119
1.02871555596
1.03137888475
1.03060009272
1.03904702265
0.492257538446
0.893787239973
0.898340019317
0.86656918444
0.871186725169
0.463795441846
1.04209075612
1.02584376549
1.02461917543
1.02814930166
1.02659397178
1.04134858511
1.04467362802
1.00660164263
1.00468357652
1.01040316732
1.00786393455
1.04466751725
0.415066434117
0.820648128948
0.825764418772
0.794558452447
0.798714821075
0.397702725205
1.04421205523
0.998591433327
0.9971547649
1.00363290607
1.00181261493
1.04456793578
1.01667030665
1.01676255508
1.02895338372
1.02701996632
1.01689339031
1.01716488802
1.01780855738
1.01823558726
1.02239633775
1
1
1
1
1
1
1
1
1
1
1.00000000002
1.00000000005
0.999999999517
0.999999998854
0.999999977034
0.999999942733
1.00000037119
0.999950130713
1.00001935449
1.00002672007
1.00000112524
0.376286413889
0.330459525568
0.999854491046
0.998348238775
0.998223035819
0.999915635733
0.354420551606
1.00080002363
1.00015215557
1.00163813492
1.00101615076
0.350973582619
0.999884415166
0.998066128532
0.997729292029
0.364282563327
1.04254458857
1.04292940105
1.03948205462
1.04041988296
0.337811480417
1.04178846624
1.04232739448
0.362142466015
1.00060832283
1.03442472822
1.0363549081
1.03060006382
1.03345400968
1.00029372057
1.0014972899
1.0397576336
1.04134435464
1.03706710565
1.03915107709
1.00125822776
0.34017559092
1.04078484322
1.04169098525
0.370723571563
0.764082612512
0.770825053981
0.700540204877
0.704965651666
0.332853788044
0.738271862213
0.742640985436
0.357229686308
0.34691849381
0.727505175626
0.733307083641
0.75417510272
0.758491661213
0.366821870863
1.04262572723
0.983603027801
0.982228697354
0.989109584736
0.986914191313
1.04273149371
1.03987867211
0.957365218969
0.954857704988
0.961861860506
0.959704235986
1.04007760962
0.335421537214
0.709326455949
0.713242300496
1.04199334223
0.976727839752
0.973676748625
0.9800918631
0.978554486502
1.04216911577
0.359703106358
0.746594877368
0.750492432151
0.717107616571
0.721800474043
0.34310597955
1.04134167589
0.967086377568
0.964200591538
0.971838876848
0.969806861569
1.04156781035
1.0200404184
1.01952726417
1.03851349971
1.04030795751
1.02096397736
1.02046546712
1.02192456229
1.02141341732
1.04083293529
1.03778998997
1.01904591821
1.01861393062
1.01830330118
1.017963926
1.03570829687
1.03510565937
1.01777321611
1.01730148763
1.01703487516
1.01681682245
1.03278876292
1.03148804168
1.01668056002
1.01664674944
1
1
1
1
1
1
1
1
1
1
1
1
1.00000000001
1.0000000001
0.999999996969
0.999999867344
1.00000169646
0.999782097883
1.0000328949
1.00004592585
1.00000242547
0.328269010963
0.299947737702
0.999651699719
0.997580082988
0.997405833689
0.999754682773
0.313023279472
1.00295716429
1.00192280616
1.00437478494
1.00316165802
0.311477299396
0.999694768464
0.997150538429
0.996939553825
0.322193152238
1.0373859989
1.03901734346
1.02935727759
1.03178510687
0.304551659812
1.03502238697
1.03684151343
0.319776205166
1.00262336433
1.04381820038
1.0450744462
1.04185411025
1.04336432841
1.00214146961
1.00411080683
1.04692121109
1.04782054454
1.04545342026
1.04658616751
1.00347340097
0.306546238831
1.03226967338
1.03447382624
0.326294926941
0.69248246922
0.696350510757
0.640074935876
0.642985967704
0.301206421211
0.668258959705
0.672085264369
0.314943811491
0.310044982804
0.66161295122
0.664841268806
0.684779146828
0.688740786907
0.324347190045
1.0379194538
0.947583101939
0.945110951264
0.952345421491
0.949968553214
1.03871775938
1.02984551246
0.917193085372
0.914981963736
0.922340725182
0.919682812403
1.03108935064
0.302733575902
0.64636386229
0.650209206376
1.03565175705
0.937362213654
0.934824131759
0.942551715207
0.939959862585
1.03626311962
0.317273924079
0.676239417977
0.680535024909
0.654253189641
0.65813977772
0.308432179057
1.0330931164
0.927721101664
0.925077016148
0.93243092425
0.930164510628
1.03402608935
1.04238232115
1.02291851686
1.02240022244
1.02392700686
1.02339409466
1.04287449712
1.04424396568
1.02497920878
1.02442212006
1.02602321204
1.02548019699
1.04467311689
1.04589190128
1.02701707941
1.02649864903
1.02808528393
1.02752729848
1.04623582903
1.04728901597
1.02913573459
1.02859897405
1.03011935106
1.02961576041
1.0475543415
1
1
1
1
1
1
1
1
1.00000000001
1.0000000002
0.999999992329
0.999999751261
1.00000400618
0.999564274661
1.00005456714
1.00006327794
1.00000503881
0.29876315459
0.279884342438
0.999345748302
0.996692294274
0.996475033149
0.999512780101
0.2889941537
1.00624336181
1.00472402032
1.00866331429
1.00709280843
0.288035439021
0.999405824737
0.996224348659
0.996033262928
0.294205456723
1.02590564785
1.02875965251
1.0138578442
1.01725855598
0.283199211054
1.02200575264
1.02478653142
0.292453649939
1.00579003673
1.04905841238
1.04941565646
1.04809411933
1.04879788689
1.00549232574
1.0078994488
1.04998246067
1.05009912158
1.04950576646
1.04987884293
1.00742033578
0.28448035572
1.01836924285
1.02131846626
0.29749086552
0.634451306093
0.637360438735
0.590722032063
0.593503525573
0.280927896619
0.614206078087
0.616725650744
0.289926385403
0.286998679186
0.609125353184
0.611718786534
0.627005003503
0.630972510331
0.295947907107
1.02668782607
0.907899447873
0.904998317662
0.912903619493
0.91058455982
1.02756095099
1.01503602643
0.877494126018
0.875052873747
0.88266964272
0.88006734107
1.01669470347
0.28202934401
0.596385474472
0.599504224602
1.02290959875
0.896956135082
0.894806573561
0.902042818568
0.899361834719
1.02383949065
0.291041026385
0.61959841179
0.623003559106
0.602862228024
0.606154602721
0.285783167484
1.01911195817
0.888114539776
0.885448668093
0.892707081115
0.89060476108
1.02074122564
1.04832924569
1.03110302533
1.03056849681
1.03214801402
1.03159532422
1.04852481099
1.04924009418
1.03315968868
1.03264151209
1.03405857628
1.0335789272
1.04933700054
1.04969178982
1.03493737675
1.03446243075
1.03586230258
1.03537881594
1.04975635989
1.05010290118
1.03674040135
1.03625832698
1.03759855888
1.03714567149
1.05010433887
1
1
1
1
1
1
1
1.00000000002
1.00000000032
0.999999984595
0.999999636443
1.00000759544
0.99922066361
1.00007181975
1.00008242551
1.00000968969
0.278953914674
0.266576424515
0.998931056923
0.995805693775
0.995657321228
0.99915227742
0.273508383851
1.01092422522
1.00902742392
1.0138976178
1.01199151484
0.2727646073
0.999009892544
0.995464371306
0.995366882154
0.27655970087
1.00973199275
1.01263452171
0.995813328049
0.998861907614
0.268944366038
1.00502319653
1.00861579759
0.275675206363
1.01032439538
1.04994163325
1.04964072966
1.05007852234
1.04998615796
1.00995725396
1.0133391373
1.04893849379
1.04814689236
1.04952006757
1.0491058966
1.01241669188
0.269907526392
1.00007938353
1.00410102529
0.278155603961
0.585643371226
0.588092665882
0.551079543672
0.553300894212
0.267302105035
0.571182799442
0.573297481258
0.274144674411
0.271915895879
0.566281381849
0.568820028841
0.580691709027
0.58321959409
0.277373883948
1.01045312793
0.868170934814
0.865800418297
0.872675181866
0.870447474741
1.01181722819
0.996907808499
0.839305116511
0.836941309616
0.843945952646
0.841639456865
0.997693044433
0.268074743677
0.555548639706
0.557939641133
1.00613068539
0.858811791325
0.856644287022
0.863412865025
0.861074898528
1.00716570542
0.274877070681
0.575601509173
0.578054316623
0.560628736594
0.563362189166
0.270894293686
1.00140137894
0.849117383364
0.846512323906
0.854303802648
0.851891279496
1.00338691535
1.05006919878
1.03839024091
1.0379813357
1.03920281084
1.03879691911
1.05001761244
1.04988665678
1.03996533568
1.03960085305
1.04065056769
1.04033434496
1.04977538822
1.04944249335
1.04137588881
1.04104575505
1.04202506924
1.04173373138
1.04925033116
1.04871988226
1.04262724079
1.04227837918
1.04320986559
1.04289320808
1.04845127504
1
1
1
1
1
1
1
1.00000000004
1.00000000059
0.999999968186
0.99999949056
1.00001183053
0.998770767431
0.998234233418
1.00008976534
1.00009297636
1.00001623637
0.265835349898
0.254469446383
0.998413045602
0.253806337311
0.245228750643
0.997831901564
0.99523157834
0.99515001152
0.998684263522
0.995087515271
0.995130240208
0.998130372172
0.260499952404
1.01643632835
1.01429204094
1.01937560822
1.01726354935
0.259893205861
0.998507980356
0.995073931503
0.995068438648
0.250015130203
1.02225397188
1.01995547095
1.02482434625
1.02313452805
0.249539003053
0.997945968477
0.995225119112
0.995332221009
0.263522495322
0.99184117124
0.994865184069
0.977610159923
0.981954741067
0.25733160947
0.252430589653
0.973095866854
0.976349869039
0.957065512454
0.961324783442
0.247469415255
0.987612535677
0.990750191655
0.262727082559
1.04789713868
1.04696582835
1.01504089716
1.01863470267
1.04397590913
1.04298543033
0.258203699919
0.98333176657
0.986567329234
0.967854046993
0.971845077636
0.251839759723
1.02161350728
1.04083658218
1.03946630404
1.04239711658
1.04149229624
1.02082620943
1.02412660248
1.03720318912
1.03571239583
1.03903104376
1.0376384269
1.02367555146
0.248101125206
0.962695750673
0.966548026092
0.265074957838
0.546263502712
0.548720926585
0.514272858305
0.516680546674
0.255321918599
0.253317465731
0.51076234027
0.512330192333
0.4853261694
0.487386217427
0.246003728677
0.532647722625
0.534668357744
0.261178421369
0.259374186506
0.52886152882
0.530696945865
0.499969799985
0.501756822309
0.250541276819
0.249097044408
0.496733844497
0.498299640563
0.541392276949
0.54380807984
0.264299082682
0.834493424912
0.831963287652
0.994058088426
0.978984856978
0.800685376934
0.79807162457
0.80662313896
0.803643163421
0.980490764003
0.256320522568
0.519489770893
0.522373723591
0.507707461165
0.509308311721
0.252898456715
0.974197042933
0.792359802968
0.790500766991
0.795893366105
0.794072080718
0.975260539532
0.95851267891
0.766815383815
0.764445345512
0.771350152249
0.769175459471
0.960035553891
0.246775768242
0.489486337204
0.491432948496
0.261941902061
0.536791449929
0.539032598012
0.524957299929
0.52703190179
0.258849148604
0.969178760853
0.783792402806
0.781646330946
0.788375489539
0.786109878097
0.970529100979
0.251176691004
0.503782737174
0.505807407538
0.493309984322
0.495031602255
0.248621851228
0.963997151384
0.775565040087
0.773497937504
0.779594072829
0.77763354598
0.965296628518
0.992999915374
0.829419397547
0.826899871695
1.01573018815
1.04674476268
1.04572064058
0.824469595303
0.822172190275
0.989694988711
0.988660170368
0.81999139989
0.817835041061
1.04549830049
1.04431286674
1.01798341215
0.815695574459
0.813639120671
0.98551363725
0.984346193086
0.811579952111
0.809320069024
1.04743581453
1.04363993783
1.0434601845
1.04409726334
1.04389661184
1.04718037471
1.04625168181
1.04437492147
1.04424980117
1.04465641198
1.04452900625
1.04594307195
1.04500268644
1.04501371462
1.044891051
1.04531159471
1.04517705932
1.0447914668
1.04360883628
1.04558848546
1.0454785242
1.0458232849
1.0456934956
1.0432248433
1.04211444078
1.04602511736
1.04594940408
1.04626734432
1.04614366921
1.04185595647
1.04057367559
1.04642151102
1.04636272001
1.04655550679
1.0465263887
1.04019977648
1.03877321251
1.04666427633
1.04661571153
1.04678473105
1.0467471342
1.0383368821
1.03691405858
1.04685708177
1.04682116026
1.04692587147
1.04689749645
1.0361419123
1
1
1
1
1
1
0.999999999999
1.00000000008
1.0000000002
1.00000000084
1.00000000105
0.99999994835
0.999999904428
0.999999346091
0.999999369558
1.00001959371
1.00003067074
0.997645184486
1.00009228002
1.00008911158
1.00002648079
1.00008220392
1.00005926955
1.00003943846
0.244445403184
0.237265078114
0.997226158569
0.995517665761
0.995687925266
0.997535200794
0.240795947876
1.02736750923
1.02524328257
1.02999238992
1.02822182838
0.240440891793
0.99734318749
0.995928210631
0.996196828245
0.242299472412
0.95068450537
0.955451858409
0.934477566031
0.939175454131
0.238824673523
0.94608992457
0.949207157973
0.241821216898
1.02675572195
1.03292353932
1.03128863165
1.03522697826
1.03358123812
1.02608971885
1.02953731111
1.02822503464
1.02631006027
1.03071069094
1.02890124226
1.02863437542
0.239282558545
0.940635280645
0.944769561745
0.243650021194
0.481038578021
0.483182917604
0.459557707168
0.46130452382
0.237947508975
0.472052595162
0.473210235574
0.241109211292
0.240070722874
0.469396697577
0.47073765369
0.477031067148
0.478922537021
0.242906779213
0.95227577974
0.756864415332
0.754530543205
0.761924596319
0.759383966052
0.953872565587
0.936065926495
0.734118500371
0.731884897507
0.738687339581
0.736487683124
0.93767604873
0.238435824398
0.463204941011
0.4649683651
0.947076281968
0.749682478269
0.748134995958
0.752585526613
0.75110096569
0.948105983847
0.241417408339
0.47433313819
0.475510471713
0.466585286279
0.468006747018
0.23972002976
0.942011630945
0.742567044086
0.740715948424
0.746321669026
0.74445984449
0.943404588546
1.03489725922
1.04700055182
1.04696804692
1.04701089205
1.04701961097
1.03431923101
1.03236102715
1.04696529456
1.04699529951
1.04687145679
1.04692997721
1.03185345437
1.0302269423
1.04679034662
1.04682106367
1.04668497862
1.04676462761
1.0298689728
1.02784036994
1.04652505378
1.04659386059
1.04634873133
1.04645028687
1.02707993096
1
1
1
1
1
1
1
1
1
0.999999999999
0.999999999999
1
1.00000000044
1.00000000078
0.999999865803
0.999999689815
1.00004364506
0.997069281674
1.00001673572
0.999995160155
1.00005311545
0.236624137861
0.230499866026
0.996638632023
0.99647215259
0.996821786531
0.996924433698
0.233263296731
1.03196058382
1.03043426476
1.03408631304
1.03266320369
0.232883081281
0.996772241852
0.997142951257
0.997552370154
0.235348986374
0.929296257751
0.933028381613
0.912512255461
0.916234522783
0.23134013329
0.922641065578
0.927658127194
0.234740769724
1.03156479064
1.02303469352
1.02105556284
1.02587415897
1.02385670417
1.03079076901
1.03351608888
1.01732368347
1.0153832952
1.02003706806
1.0180974681
1.03306331019
0.231684109257
0.917685668056
0.921470217211
0.236168679438
0.456896140705
0.458076857666
0.439024704644
0.440035691027
0.230751308979
0.447856144645
0.449311095744
0.233733438941
0.232381241195
0.445413734609
0.446606915693
0.454509581524
0.455775204783
0.23573386506
0.930571481698
0.726832991406
0.725094461755
0.729941843123
0.728342747922
0.931772719218
0.913738158817
0.705349783064
0.703841598445
0.70813291854
0.706712105358
0.914947301434
0.231052902488
0.441014797127
0.441975847006
0.924087846047
0.718184874453
0.716325597444
0.722881549758
0.720458656403
0.925887912859
0.23405563124
0.451026790835
0.452857256899
0.443053634305
0.444217403379
0.231988566204
0.919072989216
0.711511366671
0.709760133528
0.714772613031
0.713197392461
0.920288889418
1.02538810577
1.04620752141
1.04628649174
1.04597216208
1.04607283099
1.02464810724
1.02228791794
1.04569299419
1.0458747723
1.0453464812
1.04552612646
1.02151600045
1.01958697548
1.04497880297
1.04516144189
1.04468146003
1.04485476014
1.01897599415
1.0168807725
1.04431395828
1.04450581427
1.04399144447
1.04414367156
1.01609143144
1
1
1
1
1
1
1
1
1
1
1
1
1
0.999999999999
1
1.00000000086
0.999999999488
0.999999739877
1.00000030791
1.00006659316
0.996514006136
0.999958668492
0.999921142262
1.00007351492
0.23019659193
0.223874769055
0.996131556083
0.997935245257
0.998462386932
0.996379508248
0.227749986083
1.03595796879
1.03466443361
1.03759862224
1.03624802569
0.227571019111
0.996264095395
0.998794006643
0.999460362508
0.228879366735
0.905659240453
0.911007258765
0.888094398657
0.894003635475
0.225828825159
0.901007977463
0.903686795116
0.228338801381
1.03555596074
1.01119148052
1.00912020927
1.01461046491
1.01245513085
1.03505472996
1.03718658499
1.00530350376
1.00222173241
1.00871623911
1.00636325248
1.03660993649
0.226506294587
0.895892586827
0.900260065817
0.229853971647
0.436300105289
0.437770212299
0.418239958738
0.419753442852
0.224397745206
0.429469620862
0.430057948133
0.227980787131
0.227409983134
0.427643681534
0.428688688854
0.433060929845
0.434640508769
0.229492970158
0.907477443355
0.697424807428
0.695179028754
0.702009244184
0.69979988119
0.90928532837
0.890030323173
0.676327721037
0.674114666944
0.680989701504
0.67860990068
0.892044442335
0.225091206795
0.421420700431
0.423117678864
0.901871789671
0.690706460535
0.689816994595
0.693225277436
0.691804832648
0.902601974673
0.228120661086
0.430797908706
0.431729610027
0.424728678881
0.426293707909
0.227100377764
0.897567137046
0.685445004443
0.683312631569
0.688748962552
0.687282305747
0.899109472285
1.01397663939
1.04357683799
1.04376572467
1.04311546092
1.04334780701
1.01303580204
1.01070382209
1.04261350037
1.04285722946
1.04218488182
1.04243045056
1.00973834677
1.00802060384
1.04169110356
1.04190300433
1.04125363905
1.04146143321
1.00691623411
1.00465965206
1.04061927541
1.04094585259
1.0399671663
1.04032315891
1.00315678642
1
1
1
1
1
1
1
1
1
1
1
1
1
1
1
1
1
1
1
1
1
1
1
1
1
1
1
1
1
1
1
1
1
1
1
1
1
1
1
1
1
1
1
1
1
1
1
1
1
1
1
1
1
1
1
1
1
1
1
1
1
1
1
1
1
1
1
1
1
1
1
1
1
1
1
1
1
1
1
1
1
1
1
1
1
1
1
1
1
1
1
1
1
1
1
1
1
1
1
1
1
1
1
1
1
1
1
1
1
1
1
1
1
1
1
1
1
1
1
1
1
1
1
1
1
1
1
1
1
1
1
1
1
1
1
1
1
1
1
1
1
1
1
1
1
1
1
1
1
1
1
1
1
1
1
1
1
1
1
1
1
1
1
1
1
1
1
1
1
1
1
1
1
0.999999999998
1.00000000002
1.00000000135
0.99999999777
0.999999678315
1.00000138006
1.00008098279
0.996062344506
0.999866034354
0.99983780648
1.00008590422
0.223651777941
0.219226089937
0.995707828884
0.999862278072
1.00082339533
0.995918617249
0.222233009208
1.03901889079
1.0378917078
1.04005983315
1.03932124399
0.222093395641
0.995807741435
1.00143778212
1.00190452529
0.223131215679
0.88215965217
0.886315072052
0.865497098189
0.869489774279
0.220645225793
0.878819156339
0.881236122767
0.2228633468
1.0386456375
0.997908321382
0.996388823125
1.00121194802
0.999004873757
1.03839350609
1.03985857006
0.992516256904
0.990069703212
0.995382366649
0.99316404759
1.03965815428
0.220971722274
0.871320430423
0.877512800259
0.223543713708
0.415891826824
0.416940753908
0.40231106681
0.403233265496
0.219499847883
0.411981428378
0.412643535872
0.222411544923
0.221880555428
0.409854678935
0.411087864317
0.414272069604
0.415008777415
0.223378157446
0.883204581802
0.668565073159
0.667315329011
0.672046200788
0.670121036303
0.884618058541
0.653575975398
0.65180971472
0.867954453499
0.220200707904
0.404265510813
0.40548605975
0.87952363296
0.664843060089
0.663881556377
0.666368943564
0.665669368969
0.880508816201
0.222614401294
0.413170739724
0.413665812645
0.406888910382
0.408406703873
0.22144067278
0.873348986055
0.658047326989
0.65565813405
0.662789113885
0.660643599726
0.875439603341
0.866833623964
0.650311394451
0.648960681484
1
1
1
1.00030708846
1.03942801895
1.03965700953
1.03878327509
1.0391033829
0.999494849948
1
1
1
1
1
1
1
1
1
1
1
1
0.997298660392
1.03812019544
1.03837836015
1
1
1
1
1
1
1
1
1
1
1
1
1
1
1
1
1
1
1.03744345798
1.03776926819
0.996891833007
1
1
1
1
1
1
1
1
1
1
1
1
1
1
1
1
1
1
1
1
1
1
1
1
1
1
1
1
1
1
1
1
1
1
1
1
1
1
1
1
1
1
0.994611520122
1.03648891015
1.03695882369
1
1
1
1
1
1
1
1
1
1
1
1
1
1
1
1.03571300879
1.0360800928
0.994071264688
0.991857071815
1.03502543314
1.03540149581
1.03426392175
1.03463898897
0.990917598606
1
1
1
1
1
0.999999999997
1.00000000004
1.00000000151
0.999999995646
0.999999601798
1.00000216376
1.00009494136
0.995607999306
0.999770341984
0.999723612984
1.00010166931
0.218743097007
0.214293132389
0.995385103681
0.216443357266
1.04082807446
1.04024867377
1.04137921388
1.04096905187
0.216115609724
0.995426601211
1.00397099328
1.00469709321
0.217641794631
0.859762397465
0.864295729916
0.841810936855
0.845634478799
0.214992921491
0.853020431502
0.857867111053
0.217260500149
1.04128013831
0.979135317213
0.976507490683
0.215195508698
0.847435127661
0.851604074098
0.218437433106
0.400368607192
0.401388085945
0.386903880184
0.387645860012
0.214472656399
0.393536338243
0.394615261471
0.216792314713
0.215773320466
0.391952554012
0.392862300574
0.398005602611
0.399220714367
0.217988693647
0.843209374662
0.625330535291
0.624014636332
0.21471686042
0.388324840624
0.389003388349
0.217027223688
0.395652249372
0.39672956011
0.389867697117
0.390795852467
0.215421667808
0.98279980564
0.979827420618
1.04112909924
0.848665581863
0.630881456117
0.629435176154
0.633843380944
0.632397757468
0.85020045674
0.628055327118
0.626735192197
0.84397534276
1.00224555924
1.00292999467
0.995509658859
0.989472143348
0.987372496134
1.04049930475
0.861535088708
0.644495331395
0.64255175317
0.64763368859
0.646172794769
0.863019882444
1.04066904708
0.986301215639
0.983509219178
0.640496364858
0.638581861928
0.856051278045
0.854449144575
0.6368829748
0.63531396742
1
1
1
1
1
1
1
1
1
1
1
1
1
1
1
1
1
1
1
1
1
1
1
1
1
1
1
1
1
1
1
1
1
1
1
1
1
1
1
1
1
1
1
1
1
1
1
1
1
1
1
1
1
1
1
1
1
1
1
1
1
1
1
1
1
1
1
1
1
1
1
1
1
1
1
1
1
1
1
1
1
1
1
1
1
1
1
1
1
1
0.988894066176
1.03349986493
1.03399535956
1.03276191786
1.03321357186
0.988418006206
0.985274054556
1.03192598406
1.03235347898
1.03112905229
1.03152890743
0.984370832096
0.981756814419
1.03031286324
1.03073792704
1.02964276602
1.02989711023
0.980528857175
0.978074393749
1.02861177017
1.02924051662
1.02790709452
1.02828139971
0.977220157
1
1
1
1
1
0.999999999994
1.00000000005
1.00000000193
0.999999990211
0.999999985481
0.999999403509
0.99999932341
1.00000382472
1.00000517094
1.00010837656
1.00011897307
0.995319765916
0.995389338718
0.999632273843
0.999564209291
1.00011449231
0.999457275445
0.999380186511
1.00012310503
0.214123571079
0.209519979227
0.995283869168
0.20940559325
0.207413313585
0.995682650157
1.0052928969
1.00653252172
0.995299524927
1.00966935589
1.01247327528
0.995537438596
0.211303963543
1.04166167579
1.04143792981
1.04189246178
1.04170965825
0.210899549401
0.995283331615
1.00716911845
1.00768370126
0.208416645784
1.03837806415
1.04135619862
1.0373397283
1.0381990785
0.208265789208
0.995613172258
1.01304083079
1.01461610054
0.213052704718
0.836457343408
0.840851600215
0.817906478509
0.821424159799
0.209830922791
0.208856297535
0.813362114273
0.816939602618
0.797633440004
0.801158022928
0.20766015263
0.829942896701
0.834996984914
0.212502992262
1.04157564349
0.972042184122
0.969162559904
0.975870729908
0.973177671893
1.04150371315
1.04176847177
0.963393814025
0.96114529619
0.968234851729
0.964495771411
1.04173821194
0.210037960491
0.822950478983
0.828204897237
0.808207072033
0.811999892215
0.20877621825
1.03915248585
0.956673357508
0.954160941531
0.960257604914
0.957585118583
1.03969140006
1.03760732122
0.949497553196
0.947117651222
0.953155583825
0.950408942001
1.0377284728
0.20781929488
0.802573919441
0.806845483712
0.213890063351
0.385362646325
0.386309941184
0.371363622915
0.371863237476
0.209622868947
0.209198730048
0.370133158626
0.370782086941
0.361612697948
0.361904846006
0.207491671415
0.378726137419
0.379987741393
0.211729103532
0.2105432414
0.376153991218
0.377459884901
0.366580625732
0.367270403376
0.208575372458
0.208120670342
0.36480113319
0.365656843947
0.383358119026
0.384309691204
0.213458211064
0.837958186005
0.619698378848
0.618223021456
0.62262893534
0.621120804744
0.83955832812
0.819039153371
0.599635333583
0.598668974722
0.60226669589
0.600765698493
0.820155855454
0.209707975325
0.372403893228
0.373083657638
0.368840141481
0.369605345511
0.208996572567
0.814636699855
0.596417723052
0.594923380094
0.597905823083
0.597316834948
0.815888958871
0.798871985523
0.581515367664
0.580632758563
0.583298359114
0.582308168132
0.800027254572
0.207549830943
0.362345773876
0.362957352131
0.831743153352
0.613227793342
0.611317049308
0.616722953783
0.615026164158
0.833386691031
0.212089787183
0.381238637805
0.382364848371
0.373913498493
0.374972236577
0.210284969424
0.824738508773
0.605603805336
0.603989202781
0.609479804206
0.607450782275
0.826370637127
0.80953086655
0.591279270037
0.589925928489
0.593639818176
0.592613267605
0.810805917028
0.208698971888
0.36782368498
0.368259019434
0.363517068836
0.364004430631
0.207998641145
0.804005393329
0.586138154702
0.584913440744
0.588701585214
0.587379849062
0.805500851939
1
1
1
1
1
1
1
1
1
1
1
1
1
1
1
1
1
1