/*--------------------------------*- C++ -*----------------------------------*\
  =========                 |
  \\      /  F ield         | OpenFOAM: The Open Source CFD Toolbox
   \\    /   O peration     | Website:  https://openfoam.org
    \\  /    A nd           | Version:  8
     \\/     M anipulation  |
\*---------------------------------------------------------------------------*/
FoamFile
{
    version     2.0;
    format      ascii;
    class       volScalarField;
    location    "1.2e-05";
    object      magGradrho;
}
// * * * * * * * * * * * * * * * * * * * * * * * * * * * * * * * * * * * * * //

dimensions      [1 -4 0 0 0 0 0];

internalField   nonuniform List<scalar> 
49986
(
2.82692865316e-05
7.21401704337e-05
0.000235431367022
0.000763171562511
0.0024868123826
0.00809307014862
0.0262888641658
0.084973534971
0.273692556152
0.881842506467
2.73111728313
1.90502547004
6.84076337854
5.3964307555
44.8696367888
10.0456210937
6228.65206976
5413.82036694
28.5351905389
22.0765102045
152.690807423
29.0435547772
32.8968787352
12.4830215073
35.1174118923
5193.10991018
83.6724723486
25.1655852873
47.8874035668
26.8524244822
5250.08776359
44.6892836294
65.5533179804
75.1163983916
4467.63725604
110.883434913
164.591978789
25.6734947282
13.8467843114
5362.33239739
63.747948416
41.0868940225
37.0027122641
110.522312493
44.5069905141
119.110054303
167.210030692
74.9282699982
4637.92116468
199.614446578
98.0060545984
178.454177904
54.4918613838
295.176750526
120.23989272
85.9525139501
43.5322100192
24.1795240375
142.404039415
92.9935504827
119.727558621
5328.00579628
28.200049769
109.187757225
97.9697385453
102.346470305
88.569280107
84.2984476055
48.2208025791
122.497882726
83.8098661967
12.1955324731
100.476600917
4576.72268026
1279.61775842
1511.98102685
1721.45441254
1685.7246191
5397.9448047
1379.36675932
1252.40568601
5021.26858696
119.270281524
95.5426984988
43.858380703
115.618872318
111.85057373
95.9421699683
5269.1783751
1522.8798187
1473.74169996
36.3778945677
62.0620622174
84.4333261236
989.764695846
1085.69807954
4380.9652461
376.479828112
229.99805409
70.8775040252
468.615698873
545.090102967
406.149160866
22.1886399372
152.36448105
165.23185914
136.481667197
144.131670727
10.7724550278
5375.4183234
1659.96769708
1631.0256154
17.1268340489
38.7329915757
54.1484819953
206.241194382
164.573786434
89.7723412333
152.534067592
190.283576535
157.107341758
4823.34219167
1119.26660363
1010.14031165
50.4485564478
109.777271561
205.898916861
133.865927378
36.2539743724
139.232671447
201.615572735
78.9426543539
17.058918053
326.405577333
205.578170058
377.452139806
1603.27561662
1565.12059374
5291.71269575
45.9306634965
104.377311095
123.853146594
38.7066357716
74.0186887054
104.704153176
72.6819113212
17.8265341564
87.2656977295
64.0826803773
44.1945378331
23.6464422308
66.9276831338
67.5397185314
55.5295245495
0.000368159114361
0.000788582812271
0.00239441601504
0.00706147558259
0.0207935886079
0.0605467859747
0.173786264551
0.492109322843
1.36631576394
3.34610766983
5.7734840123
11.9289051255
36.5917247745
5.95575446893
13.7570061048
3.51778327051
5423.66384229
5418.49377362
19.3215819746
49.1119197922
29.1544406356
34.1807986351
5435.91505529
7.49579061195
31.2224739119
3.85194185894
4.16398381405
5436.93817145
25.8578591555
13.6268510405
5.01790779374
5453.32792809
27.7820606278
24.930241287
52.0416642607
51.9618985403
5414.15520976
40.4473113636
37.3634223539
5438.53642225
9.68023094104
6.06604575569
8.01209391023
18.2542060404
5.92972389915
26.506667554
3.27955127942
14.9169348244
12.8492584605
10.7853117062
14.1607245792
3.57082633715
5429.29713715
49.8977281039
43.3543074563
5452.7130175
1796.69952209
1758.45299114
2182.83445054
2152.65218728
5419.06100721
1953.10039489
1926.40312047
5440.99135445
5450.91783626
2035.67914439
1983.35002129
1860.50683471
1831.71555213
5460.49973266
22.2898465974
200.457786108
210.408400427
182.131309306
191.092828202
18.5294268905
51.6281848647
302.75375857
309.994254377
283.255972833
290.808114798
52.6115684705
5410.25387023
2111.88215055
2087.15253239
40.3246074586
234.495662443
241.362068673
222.175725666
228.712522909
39.6335590225
5430.70649814
1900.25739205
1881.11068572
2076.54611598
2065.88865449
5444.46198348
48.3453591245
274.362045877
279.561527783
249.039664923
261.151836716
45.8898292373
0.00264464424018
0.00473229304832
0.0134692026261
0.0362715246749
0.0965960500883
0.251206137512
0.633839540549
1.52339273344
2.7040995612
2.70044131225
1.06430530811
5.73251520084
6.72077733866
9.63007835509
1.13940344052
14.2248376577
9.01635291545
8.24080563027
3.58460515824
0.810122028362
4.57106412669
5404.93250571
4999.74443247
1.83517476457
4965.68930573
4458.86825482
2.2067473899
1.2273591948
2.29272293423
8.03239057511
5.31870936406
5.75241930757
1.91997864957
5259.18287388
6.81691473061
5.0715414981
10.2324307779
7.69829273873
5229.21316502
2.10525217946
3.36838089962
4.10796555336
4737.78463972
9.11657253007
10.0024013926
7.21352873748
8.15673313887
4706.73083051
2.18600271939
5.08085339477
4.16026290541
5337.17466915
56.6917188847
51.7077476986
69.1399912533
67.2003031902
5079.4017005
4845.2290039
71.8571370961
68.4999675915
103.436775098
85.8875394229
4584.37615879
60.3642776952
56.4067368912
5323.40206062
6.46571714877
14.3282632326
14.8565632723
13.4409745745
14.7087988427
5.64622523824
8.99824373283
17.6022964376
17.7386593598
15.817518725
17.3530412597
8.70003554831
5124.38207913
67.8770778461
61.2237186556
75.3501454096
72.7802022752
4825.27306713
9.30612109566
16.2345273603
15.241717579
17.0563806154
16.585045362
10.4375960675
6.4921589501
26.2431778819
32.9476949913
15.6275640419
24.268725078
6.61726862156
4617.96623274
82.4411458866
76.446248077
5390.45567653
2243.48596386
2211.122489
2642.77548621
2615.51300704
5027.86261033
4926.89046241
2700.52167243
2673.81131909
2977.7630059
2959.62621848
4493.53378154
2421.45930337
2390.34869509
5284.34345466
5196.54103745
2480.66714137
2450.59415
2843.42223787
2822.84033188
4771.08599818
4675.74412957
2887.7016003
2864.08619652
2285.38572031
2263.96682146
5367.36436069
55.3543052637
336.399739451
343.417501717
317.509939237
326.632196851
54.0290218589
67.8780859071
483.668983439
496.902746064
459.539395441
470.244020852
68.2353145271
5052.32863168
2586.69044961
2563.16758368
2740.50566559
2719.23003973
4877.60666368
70.6683291352
538.162521032
549.218762761
510.115180017
525.870427
70.4770391202
96.9193575494
717.856999813
739.599300765
681.87055205
699.305199031
91.1781566005
4530.70546685
2948.37771581
2944.39649168
58.981179743
379.077605375
391.922120158
351.362311626
364.837798984
57.7248357197
5306.99471756
2353.66363851
2314.17212763
2543.66381442
2515.404851
5164.53713382
65.7251598614
435.045506439
449.237336736
405.011695436
419.826757636
64.2224151605
75.3970186855
594.128649664
604.659287454
562.742101573
580.179820801
74.5651516826
4801.82061269
2801.98951731
2769.56563611
2937.85243615
2915.93142782
4647.56732278
81.1130672986
647.217895154
665.233812361
615.914759369
630.34335434
78.5349398877
19.2806544067
17.7858460751
30.2900074237
28.2071937262
16.6753510208
16.4841585303
15.1964251542
14.03270335
22.5402451816
0.0131361446409
0.019595274083
0.0527274774934
0.128903433063
0.309147544837
0.709802337853
1.4911370618
1.62880993229
2.05711998205
0.949416090194
1.47912187475
0.362003479345
0.527425182028
1.82442900601
3.43913117649
3.15310673183
1.59238689571
2.2766832692
0.542448334486
1.25305780295
1.15811450492
4414.51659616
4019.05615812
3.82365326516
4.23419763626
5.72450277147
3.02236827725
4204.14470186
11.1372293109
8.17762228611
6.79090476009
9.26756829385
4178.22752634
3.40711974546
5.51142589389
4.07991547256
4287.85903981
123.365171981
110.422550716
183.154705447
166.742566615
4068.00972414
139.649468663
125.310731822
4264.35256335
10.7817094686
37.1690094991
37.7883660798
35.6540790607
37.8680132139
10.2168930536
7.22011946648
42.6608332709
43.4673253822
39.8308482383
42.1284340935
8.90705274692
4084.71867662
163.422449123
145.962425653
4360.63730875
3021.87185729
3000.13573716
3198.62311677
3185.96874546
4039.67494554
3087.59706152
3071.20287119
4224.72651335
4143.17330874
3131.60104767
3109.44418753
3038.57082187
3031.4067299
4316.02720316
121.275188014
810.818622215
822.974696573
765.285284854
792.758479658
117.281719889
176.668786528
1026.48974784
1045.92455223
990.345038784
1007.29631505
171.094903233
4053.76874588
3171.69420689
3160.15922411
134.662219864
866.700560418
885.31768214
835.00819109
849.683819938
128.788891169
4243.91836073
3058.05057265
3047.44103874
3150.09915614
3142.44224065
4106.76021811
157.993701566
956.295256272
974.298521029
907.146266106
933.049666348
151.502021276
19.2947076834
19.1238126491
41.6712787334
42.7740447102
19.3370142338
19.7300922325
19.4851950725
19.530216543
42.8725634776
41.0059094008
19.6334715813
19.5295212369
19.8237430054
19.5526663783
37.0035122902
36.464066976
21.4549052246
21.4774529446
23.4981824999
22.9983379674
38.343783933
37.9715940016
22.7523387656
20.7718654015
0.050566781043
0.0617003939583
0.156194029768
0.157619001582
0.379792051268
0.348227826322
0.750569805374
0.745718261308
1.25486740086
1.37785699569
1.33557050529
0.703227733119
0.22332723444
1.08341501078
2.10853990353
1.3039638932
0.354094742384
3.05846682054
1.66194042535
1.28487854712
0.464055614708
3991.68988941
3642.96971961
2.71218892067
2.8697842845
2.80361087157
2.85625356593
3816.74495811
8.03978096342
6.64061914225
8.49647199297
8.48521711242
3793.14066303
2.59631367217
3.36444798942
3.41051022648
3903.00024111
207.822061342
190.136098016
273.862867004
257.587736664
3689.94631973
227.981152684
213.339094835
3877.58715622
7.58813539809
48.6248474941
49.9784231481
44.9276375636
48.4510683563
7.32106034659
8.48534428347
53.3465706301
55.6400643956
51.0419692618
52.7271425032
8.63744868005
3711.55855102
251.757976823
233.507575593
3955.48844862
3209.43530318
3206.26055598
3303.84777478
3298.22639649
3657.32778024
3262.15382118
3254.67784406
3836.67309936
3767.53025127
3271.49038325
3267.010403
3223.42713695
3214.86932927
3927.03143274
202.86533579
1100.42417474
1118.70507454
1064.62765856
1083.29893254
197.177875607
268.20313869
1310.5124541
1325.71924741
1279.22031549
1295.33222997
262.9295943
3672.50188785
3291.28936245
3286.00582341
223.183856193
1174.67709294
1190.11890507
1139.09312358
1157.93709029
218.477095286
3855.68529546
3244.89798323
3233.78566247
3281.44130066
3277.21095768
3741.73407334
245.410705555
1241.11934309
1261.22379829
1205.38725219
1222.55372464
239.729487116
46.8512611675
20.8346540023
19.6738160411
22.3080028848
22.0553556737
48.0332849368
49.0015341131
22.0718867579
22.0214044118
22.4409382265
21.8533042005
49.2504882847
51.9046177149
23.0030091906
22.593899004
22.8425886597
22.8161498528
52.1981666312
53.9802578609
22.7347749138
22.6252166779
22.9880513169
22.9220154509
54.7546779867
0.15951684742
0.416387305797
0.328943794702
0.756509470672
1.14265301897
1.13329568019
0.574893620064
0.1675954757
0.721389273343
1.53191853389
1.29380609508
0.338798965179
0.338775423788
2.63018334649
1.05590144166
1.0729209659
0.246166623293
3628.44451811
3315.7234697
3.10055000257
3.16434470901
3.18795921284
2.66586672442
3472.65555287
8.92654304877
8.28968422537
8.95642224177
8.99891522013
3457.5733513
2.83700553763
3.37603121257
3.84749112169
3565.17106399
299.614473775
279.814923773
371.328455521
350.864467593
3386.82795768
323.154514181
305.97871076
3535.2823151
8.22363149735
58.8727116522
62.0887551541
56.3153188377
58.0562175979
8.12358995861
8.68904036946
63.2360516571
65.0747784661
62.3576801089
62.6450207537
8.9654692982
3408.39803195
344.280210626
328.025253331
3613.6221508
3314.01492993
3308.21095316
3341.89309031
3342.73777444
3338.7440307
3324.73828556
3324.96604741
3491.06204225
3443.23102052
3329.48310139
3326.15042515
3319.59407809
3319.51452142
3592.37571416
292.058446456
1379.35700198
1399.59059733
1341.6837366
1359.11092024
285.312064769
364.497444302
1574.83859939
1592.73326209
1541.33538914
1556.9988508
357.225059498
3363.90955007
3340.16300436
3338.46566845
316.651580035
1447.84553026
1462.2055991
1416.84652448
1432.49514923
311.502894817
3512.2852048
3321.8100299
3319.47972036
3337.55844121
3334.56200156
3427.59753862
338.026690017
1508.17536277
1525.35575726
1476.34385567
1491.51325133
332.565030609
56.5344881993
22.9683536822
23.1261287009
22.7901498075
22.8907851022
57.0634554894
59.6395146976
23.1772310966
22.7834321192
24.5479409812
23.9720461665
60.617944632
62.3308748816
24.5698679748
24.5354561357
23.7308688671
23.7038446367
62.1624610795
63.8672232453
23.3143341544
23.1705117749
23.3842141548
22.9461905198
64.6044865357
0.923714233044
0.591683512137
1.07231299496
0.970192257589
0.484026667416
0.12120974264
0.508262190324
1.19891117041
1.21299488093
0.590514092704
0.136428496231
0.231671004308
3.36469151808
1.23465014119
1.44450211867
0.241979343749
3297.68814232
3057.56077246
3.92295067302
3.96085336641
3.74670986466
3.53454934703
3194.68178784
9.21503265352
8.96328049018
9.25682767522
8.37761259694
3171.65511487
3.75480974201
3.94845999339
4.05254595862
3259.3430925
393.480157921
376.921903721
477.455284075
454.582951965
3100.12418224
422.046612492
401.390303138
3244.71820573
9.50085373032
70.3747753883
72.1200539454
65.5081942825
68.259891698
9.43641764554
9.11146502625
72.6482842216
77.3616237269
70.6704307128
71.7159885894
8.42656790677
3113.70078127
448.516969287
428.073028193
3283.13614509
3338.4250285
3340.02702417
3312.01511785
3316.47049519
3072.62319873
3329.44685304
3333.72825198
3211.69359629
3149.22969863
3320.58699996
3324.77593706
3336.23567607
3337.13437289
3270.39832145
387.367871081
1632.47587016
1644.71959242
1607.61120115
1620.36291913
382.091855365
469.912922147
1805.0433308
1815.88976124
1776.36531134
1792.58643779
462.195019787
3086.07169648
3316.5509323
3314.68761082
415.527095057
1687.99605621
1701.0226121
1659.13207736
1675.35119474
409.467518419
3226.55292218
3336.18581039
3336.01565492
3315.17874252
3317.03951527
3130.23284069
441.586500776
1746.95722965
1762.39786259
1715.72903849
1731.05875841
434.343422426
66.0914934539
23.7030204528
23.3416894829
24.8903716741
24.1216753735
66.8884755325
71.4520977022
25.7869434686
25.6012952144
24.8007325409
25.7093695496
71.6307612391
70.6438702265
23.0188853604
23.1680866625
22.6235497223
22.2568372208
71.1562257388
74.5966497781
24.8192976033
23.5326594457
24.8508728572
24.9632163773
75.7182171003
1.97398392186
0.754945920049
0.909786582635
0.435166975583
0.12817794446
0.359793080857
0.952427558002
1.11585426818
0.66087493858
0.270481917813
0.100848479711
0.280511619397
3.87791654781
4.25859737505
1.60680375709
1.65960128951
0.274082540595
3036.59073386
2832.31154686
4.09289303532
2817.09246673
2638.99992209
4.65923613041
3.50755162909
3.49743344257
3.81063311208
4.3777668895
4.38595349252
4.39645986157
2936.26107204
8.91899544646
8.18881821673
8.82673094252
8.87419354312
2919.82975835
3.90751955088
3.53800519631
4.10296713809
2724.39056621
9.36201781578
9.12505354734
9.56543038151
8.68353018772
2718.16074088
4.51181790047
4.26712658972
4.60396502093
2986.8514258
513.066830481
485.977733523
614.558268018
585.758725563
2858.83837534
2771.89087145
646.657718527
623.587619692
753.544185742
720.602292999
2684.33424181
545.139365067
521.164006077
2974.156488
79.1289672718
85.9325932485
7.53949342834
8.33491908806
106.151633359
115.397935586
2875.39749798
575.982204158
552.267473956
680.959059518
655.672318363
2757.10596958
9.30643631931
128.054005974
136.980660505
118.868874055
125.300612715
9.42280876081
8.67592830053
149.010872048
159.992338097
139.562659235
146.631347338
8.50356278172
2694.89824754
712.036478675
688.448368798
3015.62841367
3296.71244224
3304.96983808
3235.8264851
3239.48473611
2843.07598376
2802.31269144
3231.37856856
3234.95314089
3174.19085412
3172.15983315
2656.63260275
3277.36646371
3279.38739777
2949.04945306
2903.73080038
3266.38886174
3272.47379099
3202.91505609
3207.98537479
2732.17747978
2711.29222069
3191.93521351
3197.9020998
3283.18725328
3288.97944075
3000.13808349
1827.60518118
1839.25332431
495.634188175
605.923409481
1966.77634604
1974.35345493
1949.53916618
1959.42867949
596.277189242
2847.83363612
3244.43696313
3250.38817932
3222.94517767
3227.14362509
2785.80747269
638.853479737
1999.45408902
2007.76562691
1983.89922914
1991.62687378
631.320249976
742.51143427
2090.34020727
2103.79893447
2068.25981838
2077.59737031
730.03709835
2672.46038789
3170.28993966
3171.7711977
2961.93412257
3279.36533985
3279.68998758
3256.33993079
3260.93717397
2889.97261479
673.160819058
2035.1885871
2040.4579122
2018.03421202
2027.89565866
664.660424471
2743.15677719
3213.55756925
3218.63782459
3176.97226849
3184.5121195
2704.0042798
704.096085725
2055.69112802
2061.25979485
2045.57470537
2050.71798358
696.302177345
504.583047855
1849.73426136
1859.58072182
7.94544136529
88.3714105154
96.8086009772
1869.72361035
1881.71558915
529.469420545
537.813245645
1891.97074756
1900.02619964
98.7667462293
103.662008954
8.49701444037
1907.77023907
1915.9592832
559.657519759
567.774162431
1925.21369851
1936.1818714
81.4020012775
23.838836935
24.8274901973
24.0981027455
23.9690944547
83.6169912562
91.0903538142
26.1153538016
24.5010633894
28.2895994434
27.7094107127
94.3445103328
100.627191462
28.7155612567
28.6337496291
28.0588287574
27.8846572298
102.084624111
109.000996744
28.1872061552
27.7549814933
30.0959531392
28.1289714143
112.007590421
121.290590357
31.5870343587
31.0659738669
31.893430613
31.492501369
123.086800145
131.02542526
32.6690713064
32.1358025227
33.4005711069
33.0627662053
133.99747359
142.082914678
33.1288406264
33.363038764
32.9125006125
32.6527495044
144.271182953
151.516703954
33.6134374626
32.5225250624
35.5745001762
34.6947637773
156.109904875
3.26680999753
0.730257322553
0.459610165825
0.0659241986193
0.251130355517
0.757955311934
1.01457090726
0.711588516426
0.415356195766
0.342006905319
0.228806817597
0.1720926643
0.124907329977
0.117289447491
0.0163372213114
0.311870276784
0.482139483877
4.60203994991
1.82826659914
2.10406749401
0.363280660439
2.25478492953
2.3223958462
0.585790801061
2622.63609213
2483.30013564
4.71387410278
4.39612728074
4.40333234138
4.6970345705
2574.97528575
9.02545989804
9.53379846966
9.14297928862
9.6534655044
2557.83262856
4.60262138796
4.53128163278
4.4091456675
2579.55989854
789.676029946
763.079640333
886.750890093
860.6366774
2491.43410947
816.020842098
796.321450356
2574.10583507
8.69432138125
175.488877192
181.440831644
163.319688093
172.905694125
9.29102594504
9.19868941578
198.674450034
207.416760156
186.683601896
196.312491129
9.72648090918
2504.15064722
852.809646605
827.931851537
2604.66652494
3161.28172158
3169.92179744
3056.34315044
3063.27479876
2481.29956756
3124.47432679
3115.95792195
2578.41301089
2541.3466141
3123.04357639
3127.51756247
3128.55443779
3147.4269333
2589.59336756
781.207980548
2126.76055115
2128.7495841
2113.24204073
2121.45776479
772.058823512
877.933947645
2185.70018854
2185.94836225
2181.20101101
2184.80657707
869.140134208
2483.82620756
3076.05322398
3095.02249386
808.700896322
2135.02204861
2142.24282428
2130.25296532
2132.1873893
802.48367974
2573.03460802
3114.5976337
3119.25996741
3109.55240099
3117.34438264
2522.76142751
846.352765809
2168.28262163
2175.33076621
2153.97057447
2161.692343
839.17138311
166.481452543
36.5105056851
36.0615377892
36.8551368208
36.9277979597
169.545869412
177.490758969
36.6530178047
36.6564112239
37.5849008531
36.3352448356
179.241782923
191.815180297
40.0217922829
39.1904300382
40.2937110161
40.3148038476
194.620762035
201.311789128
39.7574918915
39.85464281
39.7158024482
39.4120812765
204.249873981
9.66639032838
0.257539034002
0.122881851616
0.113687059042
0.206506220905
0.511484659314
0.613706286333
0.848175029414
0.928909034474
0.768542066419
0.735755503453
0.457912232503
0.255239347515
0.132054440897
0.0323073632145
0.108712322165
0.661348595175
4.64072598169
2.34773319167
2.38236080029
0.760373413879
2486.83321622
2345.33207428
4.65476480764
5.03573338842
4.97872051568
4.72775110322
2391.43169154
10.1548284203
9.14195398955
11.450084308
9.74855616524
2387.00450354
4.63545653174
5.09826380251
5.66020581007
2448.34396308
923.866560284
895.490672684
1019.32189222
1004.64402337
2364.33689597
956.930628544
934.066237452
2428.72171668
10.4235150293
226.080027174
235.12267049
210.37160098
222.00539342
10.287712946
10.7734097906
249.808335774
256.950939746
237.606909807
247.072400328
9.82462360587
2383.23051234
992.432730693
963.687606358
2480.39596182
3071.95550947
3057.79738634
3004.66006778
3011.02536882
2350.52751681
3015.68519938
3033.15998489
2399.61685806
2387.84804673
3000.70948332
3006.75387223
3075.84493792
3078.79617649
2464.8056582
913.681842192
2210.12078586
2217.40149397
2188.7160824
2199.06990881
904.137811722
1015.48819374
2272.90979802
2272.05691384
2263.75286056
2270.55226821
1011.09958742
2355.84132494
3015.49980764
3017.20096884
949.88747488
2230.08473428
2230.7390112
2225.24155588
2229.40270086
942.302269413
2411.48008882
3053.88334388
3066.43155265
3010.8570287
3000.13446176
2391.73715941
980.735411674
2233.92779897
2246.31304721
2231.22320349
2231.29185685
971.250150108
212.866933627
40.1513329309
39.1320904745
43.1239919449
41.6543697982
216.561547706
229.047167347
43.8105388722
43.5941891807
43.6031132149
43.8456792174
232.138116272
240.260252331
43.6642112222
43.4010241718
43.775657361
43.2093541905
243.571176876
252.189997993
44.7968895873
43.6800612386
46.5994241829
45.355059499
254.010865902
3.54217460547
2.27899993292
36.8377137779
30.2304825171
12.6015743864
20.3646180305
126.251862664
642.34844376
0.114176820002
0.544300136291
0.435648549084
0.775413395901
0.763915765232
0.499337599084
0.28385499746
0.153914786745
0.0710183577703
0.0382997433405
0.187984836352
0.820761998897
4.46670891173
2.44986101406
2.54693251131
0.95096829731
2339.02171794
2193.14229063
3.88649794416
5.13441324245
5.47794013685
4.47656826644
2296.40787599
10.4038785629
11.8029645837
11.3587712787
14.0161632135
2290.41154496
4.04840943401
5.97351938793
4.85517767341
2297.46045118
1056.30318087
1024.22865484
1163.65439939
1128.89038887
2240.97143393
1084.93214065
1069.56282669
2291.75545049
9.95330341812
283.576864829
282.289984859
260.885766275
280.449235637
10.9866306345
13.0924437741
304.632301729
320.543039449
280.849711867
297.537756289
14.8312600221
2256.77042698
1119.20948909
1090.52414718
2326.30516827
2974.18977741
2993.47342369
2874.75277563
2904.59752248
2201.92560754
2945.7066273
2939.50044452
2299.03949268
2281.26938069
2935.67483462
2943.6012082
2941.03252466
2956.51636289
2307.72272765
1041.35432821
2265.91636886
2266.3483038
2269.59977224
2267.71444737
1031.26327777
1152.38147918
2326.5597236
2323.72138734
2320.50019321
2326.41502156
1140.38504481
2220.8452883
2921.2203627
2929.74026695
1081.08947856
2281.49911471
2289.69443139
2270.11601948
2274.99763866
1076.59917349
2293.4190994
2931.24911211
2931.2613189
2933.11165239
2932.28769323
2269.57833009
1110.24238286
2308.15603378
2314.38720594
2297.27852417
2301.74960566
1100.35280901
266.083937845
49.5737525805
48.4135632988
50.5470466555
50.8221537528
273.510554108
284.374308188
46.6476830429
47.9807188446
45.0254076028
44.658412663
283.782651983
286.936156345
49.5872286724
45.735315165
53.2035510469
52.0021671562
292.198074785
311.544544918
54.7425063
55.5792114328
52.8341044084
53.8157268495
316.960107163
0.676177083972
0.212395746473
854.398139189
758.178105136
0.37450434774
0.914155562473
805.706662829
4.82222706731
6.33780077439
0.501998758576
1.19401036725
623.974492922
0.85033332322
0.352766495468
742.231237394
0.277536303179
0.320781769069
0.21556412204
0.171228112857
0.377910552474
0.118332070199
840.491650533
742.492729693
754.426245848
5.28163916702
4.6969225687
792.909751148
2.98902157055
2.65646857757
0.801017622409
713.437485974
727.370933641
822.183469188
38.1506490965
36.8774115398
5.88119285027
5.53908737077
34.7566853255
33.5215740432
782.308565221
690.370156326
702.149624593
668.077275827
679.207344617
770.924063808
0.493761479288
2.42037610176
2.40472887152
696.570915166
2.9991676507
4.59570225982
5.73535800197
32.8691400545
31.9186796038
33.1575778438
33.3390575753
5.46645160056
1.06964186125
4.15087272524
686.664558292
0.314077004336
0.330926778967
0.291101664613
526.931921555
3.74563214659
0.637191036892
1.83002455739
0.964230221205
0.506746398405
722.489646407
639.471606242
655.165211207
615.975745758
627.289775962
707.748424264
30.1517581989
27.7296045279
3.39930414289
2.78268448556
27.0455376739
27.2416089903
675.155876184
593.559334651
604.147356876
567.161180743
582.034922585
661.480970479
591.025297042
2.63421432123
1.25457089918
0.790512506746
1.26106390134
0.982563805164
27.1966289193
26.2730724583
3.60808902678
611.040328927
540.338434889
552.404982296
2.325877384
25.1834304897
22.3887086715
11.5251382788
2.32174941704
516.486153743
0.227597436247
0.13419345374
0.343260932134
1.34664793758
1.67173160692
0.654518063847
1.98250544272
2.06635286582
576.990221225
1.34146771746
1.47659780779
0.947287799678
513.897789524
526.496103711
601.947784502
20.7026619806
20.6505701737
1.62045828434
3.0594309834
21.861010591
20.0723393111
560.087903218
483.486819633
500.088931729
443.042765017
463.389964235
541.391420112
2.8006849219
1.85866716324
4.68480625126
471.468297215
21.0291555808
10.7327554253
18.9411144247
17.235711272
2.7060950838
72.7663293558
48.6774000119
442.580232745
0.325452609708
0.456087721577
1.16828297091
7.06657270508
5.08518379781
1.17645341162
505.338093672
399.021675131
420.007850491
2.32534241214
17.0056622702
21.1195148018
341.110193891
374.805567575
493.54254754
26.1867981369
31.3078503872
15.2231883799
19.6648122376
41.4537395272
51.3184606839
403.603885323
210.271431503
275.92399257
866.524703895
0.232146268169
0.754686938846
0.780180952056
0.527533624636
0.305804611021
0.16526627482
0.0752603135589
0.0431611062005
0.094357360447
0.271222128634
1.03473224478
3.51391258272
2.5773477202
2.45251802052
1.10437175152
2191.66934987
2127.04512207
2.77152519836
5.28296815391
5.46170387161
3.13499974252
2171.83885773
15.9190298216
11.423911802
16.6115266323
14.0077184939
2145.91797747
2.62191159904
4.56843238562
4.94803469443
2212.22704933
1188.11487177
1171.61936249
1264.02283711
1251.5482745
2126.06906211
1212.77747312
1202.79181404
2199.07935047
16.8406589936
334.928753037
344.856661538
323.064861983
325.635456517
14.008212062
14.4123627393
366.728436849
383.129552881
350.823745805
365.406030999
13.7419748525
2118.34231831
1245.79738898
1217.01100675
2195.68436679
2842.50039054
2853.13705735
2808.81197513
2790.6141414
2141.64407589
2875.37832887
2870.21027308
2185.92691005
2126.52516282
2846.9637408
2871.54960119
2839.8810121
2837.6908786
2208.42268017
1181.63088301
2316.10968559
2318.89702102
2320.68093973
2317.65850558
1177.20355241
2337.84438959
2339.37108365
1255.25592072
2138.77282507
2776.13260569
2775.45960435
1211.07054016
2337.05488522
2341.42607498
2327.34632216
2332.71859042
1208.97908755
2192.36893393
2858.05402975
2845.71816016
2784.84624483
2807.57357171
2119.14433275
1238.3336754
2341.94040445
2340.07827969
2346.20132924
2345.01006775
1226.81491495
1255.57663721
2343.04302848
2349.13495607
0.184457773204
0.265301542686
1064.77729401
324.688256534
51.6760454561
51.7554145507
53.459443311
50.8735088024
324.339304479
971.828488266
1.35523627423
1.62571429247
1029.78660427
8.15499862956
7.70191787687
1.09075191005
1.25924214526
960.932355312
0.508212151024
0.540949713693
0.345300455967
338.511589448
58.494692556
57.3128299171
0.564582215379
0.483549948739
0.245349319603
1053.32930321
933.999361411
944.954731022
6.44621368813
7.81594038498
1015.86500716
4.22700025456
4.32013017552
1.50535344767
911.412557828
922.431904163
1041.99929988
51.7498388703
51.3625441457
7.80291127373
59.8032684887
59.6305938546
340.662533139
862.241171124
872.901673473
983.988060072
1.47758821631
3.99509448687
3.48259458246
8.39784103472
50.8461267262
50.0139449201
920.49428514
6.60074350773
7.23104433993
6.83455073896
45.8614304969
45.2341239788
48.6557295452
46.7168064806
7.22894052225
998.505263802
885.226988739
899.643403864
6.29403711496
6.07054630343
902.811265622
0.140551608862
0.353346201103
0.189619724927
3.57764273739
3.43562264113
1.25084567248
949.239582119
839.260691442
850.702745141
814.755598722
827.968732156
936.443176428
45.2463181983
44.4405343703
7.37571188295
765.587325742
777.385711484
877.466291014
357.498526643
61.1690500187
60.592222113
1.22691896504
3.04084769676
2.87669225207
7.094290613
43.5503810479
41.6201685961
40.0295234111
39.175917574
5.45559447758
889.069032299
788.333059407
799.994881823
5.6405668499
39.0793205272
38.7779361157
62.0493205669
61.7594592676
362.773040716
367.273241305
63.0177464374
61.9205215861
71.8125037551
67.0804728142
370.94711404
1077.39911341
0.537055787651
0.741230461136
0.575884486975
0.337716580585
0.196650945371
0.114150111825
0.0528706671838
0.053361023054
0.110893831644
0.232966549267
0.980125803047
3.05449253812
2.37013534879
2.51132299975
0.982118787391
2105.87950804
1979.10877156
3.55462768521
2036.52606675
17.3881916413
15.8545854737
17.2063332118
18.1012284921
2043.89233469
3.34579688344
5.71817653111
5.8045160003
2041.94528119
1296.91011273
1277.92182694
1356.71108956
1345.65624935
1986.2295411
1315.91518934
1302.2830364
2034.23546295
16.5284130964
451.187065237
455.129313882
2001.00385994
1342.19007607
1318.38619644
2084.85942932
2814.26132043
2814.1925685
2690.88271772
2714.24827207
1975.28257068
2718.94797707
2721.82785944
2031.30795831
2035.69211544
2750.91808706
2728.4297824
2788.00164425
2806.61965529
2061.11292256
1352.30412749
2383.13369008
2380.25984584
1974.39419373
2742.73089929
2755.35032088
2030.92949038
2732.7614726
2755.78981281
2759.38345496
2758.46366415
2014.29737953
420.499742162
446.439963284
17.5267033344
1336.06836072
2381.38759927
2387.14785167
2361.97672098
2367.79634296
1323.40088903
2388.92581442
2388.14233511
1348.72763756
5.415240556
5.74606817597