/*--------------------------------*- C++ -*----------------------------------*\
  =========                 |
  \\      /  F ield         | OpenFOAM: The Open Source CFD Toolbox
   \\    /   O peration     | Website:  https://openfoam.org
    \\  /    A nd           | Version:  8
     \\/     M anipulation  |
\*---------------------------------------------------------------------------*/
FoamFile
{
    version     2.0;
    format      ascii;
    class       volScalarField;
    location    "1.2e-05";
    object      mixAlpha;
}
// * * * * * * * * * * * * * * * * * * * * * * * * * * * * * * * * * * * * * //

dimensions      [1 -1 -1 0 0 0 0];

internalField   nonuniform List<scalar> 
49986
(
1.42013053863e-10
1.42013053921e-10
1.42013054168e-10
1.42013055182e-10
1.4201305936e-10
1.4201307657e-10
1.42013147485e-10
1.42013440503e-10
1.42014651744e-10
1.42019642488e-10
1.42040099128e-10
1.42025278994e-10
1.42037794757e-10
1.4206844152e-10
1.43676685451e-10
1.42192317022e-10
1.65855903168e-10
1.94168985555e-10
1.44509063407e-10
1.42115834853e-10
1.44571920623e-10
1.42334225527e-10
1.42701884048e-10
1.42254464892e-10
1.42484019826e-10
1.83269803682e-10
1.45734809911e-10
1.42046245162e-10
1.42947662351e-10
1.45659119145e-10
1.84481556131e-10
1.42737269097e-10
1.45543312155e-10
1.43466076877e-10
1.75013848421e-10
1.47025495773e-10
1.42259752872e-10
1.41786472153e-10
1.42232819606e-10
1.90468064792e-10
1.44259395347e-10
1.44922079073e-10
1.44621673797e-10
1.43194546692e-10
1.42515556699e-10
1.43010161743e-10
1.44242807695e-10
1.46795443031e-10
1.77188728e-10
1.44585829793e-10
1.4652696774e-10
1.45095317398e-10
1.42071566931e-10
1.4611881302e-10
1.42629629743e-10
1.43453706379e-10
1.42735282402e-10
1.42363809103e-10
1.44404381622e-10
1.43272610162e-10
1.44351866292e-10
1.8834074388e-10
1.42389724207e-10
1.43745000795e-10
1.43250987578e-10
1.44347388762e-10
1.43356958521e-10
1.44732478124e-10
1.4503371668e-10
1.44462308753e-10
1.44207147518e-10
1.45002657765e-10
1.44253935129e-10
1.70916584603e-10
1.48582631232e-10
1.45852526922e-10
1.44022911224e-10
1.43960343727e-10
1.93101454884e-10
1.43004534726e-10
1.43618661109e-10
1.81447935102e-10
1.45456892076e-10
1.46002216031e-10
1.45932374205e-10
1.45506263254e-10
1.4496765665e-10
1.45419653738e-10
1.85534003572e-10
1.43133443775e-10
1.42894657287e-10
1.45473310508e-10
1.45282219336e-10
1.45103805042e-10
1.47037640556e-10
1.48231008763e-10
1.72778300217e-10
1.46029779555e-10
1.47211542515e-10
1.47058764373e-10
1.43005887473e-10
1.46033499246e-10
1.43667711064e-10
1.41942553491e-10
1.41650703034e-10
1.41465377666e-10
1.41941454226e-10
1.41816183097e-10
1.42085663001e-10
1.91282462548e-10
1.4380877348e-10
1.43695247977e-10
1.44917222321e-10
1.4483989902e-10
1.44669225379e-10
1.45199773972e-10
1.44077509078e-10
1.43208782938e-10
1.46346764896e-10
1.45256965646e-10
1.46136343153e-10
1.78479473878e-10
1.44643734048e-10
1.45724296991e-10
1.46361489038e-10
1.46318555496e-10
1.45699671764e-10
1.45901321769e-10
1.46218291536e-10
1.45955160308e-10
1.42618274712e-10
1.42214507779e-10
1.4202810347e-10
1.44381889192e-10
1.42889603247e-10
1.44177446993e-10
1.43578903796e-10
1.43299987173e-10
1.87138698339e-10
1.42697061697e-10
1.42230539264e-10
1.42081933139e-10
1.42853314324e-10
1.42576011931e-10
1.43101235838e-10
1.45087385393e-10
1.45245903139e-10
1.4512526859e-10
1.44924413165e-10
1.45188260914e-10
1.45148837665e-10
1.44907858616e-10
1.44608584065e-10
1.44888070119e-10
1.42013059563e-10
1.42013068429e-10
1.42013101376e-10
1.42013207607e-10
1.42013553537e-10
1.42014674301e-10
1.42018293122e-10
1.42029882471e-10
1.42066798522e-10
1.42184223833e-10
1.42530130704e-10
1.42918839931e-10
1.439099848e-10
1.43502988031e-10
1.43087054367e-10
1.43058893717e-10
1.95569281216e-10
2.25653601542e-10
1.42321374114e-10
1.43037712932e-10
1.4245166296e-10
1.4320315633e-10
2.08750969596e-10
1.4218602478e-10
1.42694052725e-10
1.41978612378e-10
1.42105045188e-10
2.10825508587e-10
1.42658158732e-10
1.42124220247e-10
1.42055939011e-10
2.0117805642e-10
1.41399372057e-10
1.41589740278e-10
1.40970980147e-10
1.41102669067e-10
2.19196028966e-10
1.41250828174e-10
1.41376844109e-10
2.03048710841e-10
1.42270732795e-10
1.41837797456e-10
1.41779275974e-10
1.4213025841e-10
1.41991789974e-10
1.42405227979e-10
1.41984396325e-10
1.41576032819e-10
1.41536251986e-10
1.41721408078e-10
1.41659008434e-10
1.42046137258e-10
2.17308713595e-10
1.41147391594e-10
1.41214536241e-10
1.97374940577e-10
1.44315325318e-10
1.44138065225e-10
1.49043650313e-10
1.48595027549e-10
2.23633125927e-10
1.4602562904e-10
1.45691839403e-10
2.06838782377e-10
2.13195072484e-10
1.46653135825e-10
1.46263718267e-10
1.44834720146e-10
1.44624729908e-10
1.99285749332e-10
1.41414293797e-10
1.41046752809e-10
1.41035821334e-10
1.41222524602e-10
1.41105472825e-10
1.41463684244e-10
1.40991305386e-10
1.4065943453e-10
1.40639408988e-10
1.40754545635e-10
1.40711397296e-10
1.41049067256e-10
2.21377547073e-10
1.48120741104e-10
1.47796619206e-10
1.41294824334e-10
1.40920125693e-10
1.40870546146e-10
1.41015787828e-10
1.40971498061e-10
1.41334103349e-10
2.04893198565e-10
1.45460962544e-10
1.45152614356e-10
1.47533001956e-10
1.47203761531e-10
2.15464072811e-10
1.41167704168e-10
1.4078941199e-10
1.40784141199e-10
1.40835024171e-10
1.4079173469e-10
1.41176896848e-10
1.42013125656e-10
1.42013208244e-10
1.42013518952e-10
1.42014411599e-10
1.42017001992e-10
1.42024356653e-10
1.42044746979e-10
1.42099854473e-10
1.42240994922e-10
1.42501207619e-10
1.4268544304e-10
1.42863823612e-10
1.42281993204e-10
1.42174865529e-10
1.41967789483e-10
1.42535350653e-10
1.42167533058e-10
1.42575993345e-10
1.42009887452e-10
1.42012343345e-10
1.42099982401e-10
2.27932856678e-10
2.59485873213e-10
1.4197402634e-10
2.61626769635e-10
2.89452290319e-10
1.41984792227e-10
1.42014694683e-10
1.41970558077e-10
1.42024239421e-10
1.41966715619e-10
1.4200501955e-10
1.41971766353e-10
2.42727603864e-10
1.41956714005e-10
1.4197733846e-10
1.41921059061e-10
1.41943835844e-10
2.44738891833e-10
1.41970740742e-10
1.41931585035e-10
1.41943427077e-10
2.74774965271e-10
1.41880026418e-10
1.41925262915e-10
1.41680030842e-10
1.41848095143e-10
2.76474193316e-10
1.41985702985e-10
1.42023558841e-10
1.42027302141e-10
2.33860755737e-10
1.40914849137e-10
1.4095790963e-10
1.40833606053e-10
1.40837446856e-10
2.53483999575e-10
2.67404096051e-10
1.40816513013e-10
1.4082808047e-10
1.407243116e-10
1.40747468358e-10
2.83648792345e-10
1.40830024042e-10
1.40891348808e-10
2.35886714123e-10
1.41964319866e-10
1.41439261587e-10
1.41398755171e-10
1.41512444343e-10
1.41476629207e-10
1.41967464714e-10
1.41920625224e-10
1.41349142638e-10
1.41349389278e-10
1.41379639167e-10
1.41353398747e-10
1.41921605151e-10
2.51743629664e-10
1.40838534732e-10
1.40829867929e-10
1.40762043473e-10
1.40808716017e-10
2.69429345254e-10
1.41906271283e-10
1.41298069192e-10
1.41264643322e-10
1.41341510371e-10
1.413241711e-10
1.41916738687e-10
1.41725504348e-10
1.41065154841e-10
1.41042763765e-10
1.41234827229e-10
1.41091224001e-10
1.4178484814e-10
2.82291131349e-10
1.4076528963e-10
1.40764075233e-10
2.30291972341e-10
1.50054923602e-10
1.49537415273e-10
1.57996113406e-10
1.57376418399e-10
2.57511369399e-10
2.63843541578e-10
1.59342667667e-10
1.58643703783e-10
1.68539888904e-10
1.67702878261e-10
2.87091195779e-10
1.53097299024e-10
1.52547761555e-10
2.40597837071e-10
2.46965698307e-10
1.54301537125e-10
1.53663329488e-10
1.63063317988e-10
1.62532443968e-10
2.73299509455e-10
2.78497625568e-10
1.64394376643e-10
1.63686453648e-10
1.50936808863e-10
1.50521454621e-10
2.32147478137e-10
1.40935316758e-10
1.40644681865e-10
1.40648161799e-10
1.4064108889e-10
1.40640876009e-10
1.40944781015e-10
1.40837677268e-10
1.40789937888e-10
1.40798725286e-10
1.40764508212e-10
1.40773618414e-10
1.40836675243e-10
2.55376709262e-10
1.56719504897e-10
1.56138633632e-10
1.60516869231e-10
1.59943562401e-10
2.65682590291e-10
1.40822081619e-10
1.40850508876e-10
1.40863540131e-10
1.40808574713e-10
1.40831196886e-10
1.40824433385e-10
1.40718747549e-10
1.41429664801e-10
1.41605581648e-10
1.41136382698e-10
1.41277978005e-10
1.40729584756e-10
2.85184573577e-10
1.67013687264e-10
1.66368097965e-10
1.4085447545e-10
1.40652042282e-10
1.40649099266e-10
1.40645507877e-10
1.406543638e-10
1.40872063901e-10
2.38289424041e-10
1.51987366559e-10
1.51407047185e-10
1.55595000568e-10
1.54972071258e-10
2.4948851841e-10
1.40839404425e-10
1.40732035741e-10
1.40756529717e-10
1.4066092457e-10
1.40692630835e-10
1.40833250326e-10
1.40783431083e-10
1.40901855755e-10
1.40901033453e-10
1.40882951554e-10
1.40897670959e-10
1.40797468564e-10
2.71575744179e-10
1.61918535518e-10
1.61185635674e-10
1.65735143793e-10
1.65093077838e-10
2.80605572025e-10
1.40774383108e-10
1.40972327826e-10
1.41019928747e-10
1.40921925036e-10
1.40941945993e-10
1.40761862499e-10
1.41397563796e-10
1.41388232109e-10
1.41036356769e-10
1.4103919757e-10
1.41379599675e-10
1.41372005625e-10
1.41343235608e-10
1.41303355461e-10
1.41153112203e-10
1.42013542865e-10
1.42013939174e-10
1.42015536707e-10
1.42019629963e-10
1.42030246024e-10
1.4205680854e-10
1.42120404609e-10
1.42259572703e-10
1.42261775603e-10
1.42372412722e-10
1.4242445873e-10
1.42415227174e-10
1.42500075406e-10
1.42406166618e-10
1.42482896763e-10
1.42193878321e-10
1.42041824027e-10
1.41990510029e-10
1.42015823983e-10
1.42037559e-10
1.4203902963e-10
2.92383405059e-10
3.22038205711e-10
1.42064654178e-10
1.42043974231e-10
1.4207309372e-10
1.42000407312e-10
3.0556371602e-10
1.41752151052e-10
1.41675842637e-10
1.41689687302e-10
1.41746006492e-10
3.07892156821e-10
1.42030624075e-10
1.42115242389e-10
1.42152473537e-10
2.99284306347e-10
1.40724455123e-10
1.40736634028e-10
1.40549120662e-10
1.40606365401e-10
3.16808082135e-10
1.40691691133e-10
1.40707425296e-10
3.00586925617e-10
1.41728463531e-10
1.41060261906e-10
1.41032778745e-10
1.41055400251e-10
1.4107120569e-10
1.41694891656e-10
1.41709236356e-10
1.4092640734e-10
1.40872767934e-10
1.41016235775e-10
1.40948656321e-10
1.41735111891e-10
3.15207201064e-10
1.40627727817e-10
1.40682608886e-10
2.95697783812e-10
1.70658734635e-10
1.69543799187e-10
1.81763888976e-10
1.80924593574e-10
3.20308970935e-10
1.7484623984e-10
1.74079160419e-10
3.03691829356e-10
3.10635091932e-10
1.76767049259e-10
1.75730705885e-10
1.72154848e-10
1.71519895004e-10
2.97884694174e-10
1.40736858934e-10
1.42316769376e-10
1.42433696612e-10
1.41816017822e-10
1.42046706962e-10
1.4074045126e-10
1.40561849838e-10
1.44746473915e-10
1.45004322601e-10
1.44302882625e-10
1.44507888674e-10
1.40582202811e-10
3.1849076609e-10
1.80092243857e-10
1.7935002897e-10
1.40693658654e-10
1.42931223064e-10
1.43198678418e-10
1.42581288001e-10
1.42728901659e-10
1.40693925309e-10
3.02082826922e-10
1.73384851544e-10
1.72736059408e-10
1.78642947132e-10
1.77807845756e-10
3.13281975689e-10
1.4064418949e-10
1.43822074702e-10
1.44098452003e-10
1.43362315915e-10
1.43555585753e-10
1.40665307173e-10
1.41405153334e-10
1.41427071452e-10
1.40972426787e-10
1.4090569576e-10
1.41359182561e-10
1.41377695969e-10
1.41335344736e-10
1.4134605051e-10
1.40888715621e-10
1.40995779336e-10
1.41447455015e-10
1.41464160681e-10
1.41481694552e-10
1.41487357331e-10
1.41043464032e-10
1.41049741549e-10
1.41488662187e-10
1.41475669102e-10
1.41460541445e-10
1.41446730794e-10
1.41076274259e-10
1.41067918478e-10
1.41426740203e-10
1.41410896873e-10
1.42015380503e-10
1.42016609278e-10
1.4202409673e-10
1.42022454802e-10
1.42040692128e-10
1.42035685064e-10
1.42073547958e-10
1.42066536237e-10
1.42142106273e-10
1.4213395811e-10
1.42251644152e-10
1.42338780208e-10
1.42367149047e-10
1.42358782914e-10
1.42235656608e-10
1.42078852491e-10
1.42050610175e-10
1.42083799877e-10
1.42066177041e-10
1.42075753518e-10
1.42071808968e-10
3.23664542253e-10
3.47019129727e-10
1.42066165321e-10
1.42155008725e-10
1.42149532778e-10
1.42080113955e-10
3.35651154302e-10
1.41628239782e-10
1.41671132103e-10
1.41562778449e-10
1.41615067713e-10
3.36918746321e-10
1.42070974179e-10
1.42147566838e-10
1.4214882551e-10
3.28454377006e-10
1.40530570282e-10
1.40543419755e-10
1.4050090518e-10
1.40508646804e-10
3.42960057435e-10
1.40519037108e-10
1.40529583859e-10
3.30381152675e-10
1.41634891339e-10
1.40821033631e-10
1.40800961195e-10
1.4085972988e-10
1.40829659341e-10
1.41645046555e-10
1.41581793949e-10
1.40750728949e-10
1.40716784866e-10
1.40795653268e-10
1.407643498e-10
1.41599941862e-10
3.41203895616e-10
1.40514465605e-10
1.40519711702e-10
3.25184669803e-10
1.83356167354e-10
1.82567390189e-10
1.94606208412e-10
1.93931964904e-10
3.45887722179e-10
1.88336268369e-10
1.87569789594e-10
3.3415633354e-10
3.3816761697e-10
1.89776331773e-10
1.89051709725e-10
1.849557531e-10
1.84131622346e-10
3.26732021693e-10
1.40536094377e-10
1.45774209196e-10
1.46029935503e-10
1.45260950676e-10
1.45519713616e-10
1.40541217021e-10
1.40502119224e-10
1.48984437594e-10
1.49227800579e-10
1.48446782101e-10
1.48724836026e-10
1.40503648609e-10
3.44563751153e-10
1.93194484124e-10
1.92362102185e-10
1.40522844735e-10
1.46827384622e-10
1.47083149064e-10
1.46300181854e-10
1.46566129775e-10
1.4052856776e-10
3.32363121943e-10
1.86735644306e-10
1.85848805689e-10
1.91450925456e-10
1.90569325206e-10
3.39582129918e-10
1.40518876978e-10
1.47862131897e-10
1.48153260266e-10
1.47334180852e-10
1.47593945246e-10
1.405219289e-10
1.40854415158e-10
1.41317395966e-10
1.41323952109e-10
1.41291479171e-10
1.41303762921e-10
1.40842721632e-10
1.40814211386e-10
1.41279018204e-10
1.41283216277e-10
1.41269062789e-10
1.41274962964e-10
1.40808187332e-10
1.40789594138e-10
1.41253067571e-10
1.41261640279e-10
1.41228051912e-10
1.41241038508e-10
1.40778650137e-10
1.40738247027e-10
1.41201398884e-10
1.41213276818e-10
1.41173629033e-10
1.41187165273e-10
1.40727207143e-10
1.42021798902e-10
1.42040410057e-10
1.4204154762e-10
1.42080000307e-10
1.42145804174e-10
1.42241479782e-10
1.42311585605e-10
1.42336602622e-10
1.42331904735e-10
1.42249696332e-10
1.42124631807e-10
1.42070958546e-10
1.42078301876e-10
1.42061722945e-10
1.42069643236e-10
1.4205509697e-10
1.42073543822e-10
3.48114245503e-10
3.66636672807e-10
1.4203826842e-10
1.42149579553e-10
1.42143539915e-10
1.42052974221e-10
3.5733037743e-10
1.41486263697e-10
1.41541006077e-10
1.41450593111e-10
1.41474116746e-10
3.58223624335e-10
1.42047532555e-10
1.42148690633e-10
1.42152883079e-10
3.52328556578e-10
1.40492381272e-10
1.40500361869e-10
1.40552969351e-10
1.40520811005e-10
3.62972740676e-10
1.40526221673e-10
1.4049389368e-10
3.54013793886e-10
1.41502620061e-10
1.40653482131e-10
1.40653708832e-10
1.40706165021e-10
1.40660506613e-10
1.41520137897e-10
1.41456376745e-10
1.40605917394e-10
1.40602728055e-10
1.40649071594e-10
1.40615561867e-10
1.41467261236e-10
3.61640502613e-10
1.40519149825e-10
1.40529379976e-10
3.49307807624e-10
1.95996524091e-10
1.95271659277e-10
2.07144870622e-10
2.06365928915e-10
3.6558816193e-10
2.00945534948e-10
2.00294142766e-10
3.56465289839e-10
3.59215396236e-10
2.0225300655e-10
2.01582075394e-10
1.97812752719e-10
1.96857602368e-10
3.50725519758e-10
1.40489406929e-10
1.50043297466e-10
1.50377218195e-10
1.49473523455e-10
1.49736083806e-10
1.4049161597e-10
1.40542493792e-10
1.53594492234e-10
1.53905982688e-10
1.52949595344e-10
1.53263470917e-10
1.40525172629e-10
3.64346588968e-10
2.05535696364e-10
2.04698907315e-10
1.40509756952e-10
1.51274185265e-10
1.51544840558e-10
1.50705910783e-10
1.50999786856e-10
1.40497208785e-10
3.55414605412e-10
1.995818161e-10
1.98771295965e-10
2.03844828101e-10
2.03012795633e-10
3.6037964244e-10
1.4051910905e-10
1.52316774495e-10
1.5262622271e-10
1.51790210896e-10
1.52032362651e-10
1.4052384761e-10
1.40690091075e-10
1.41144466387e-10
1.4115924065e-10
1.41113243348e-10
1.41124597531e-10
1.40673144753e-10
1.40650887401e-10
1.41097675474e-10
1.41102887467e-10
1.41085818362e-10
1.41092972464e-10
1.40653920439e-10
1.40640746897e-10
1.41070359026e-10
1.41078136211e-10
1.41050586604e-10
1.41059653642e-10
1.4062620915e-10
1.40603384017e-10
1.41032499521e-10
1.41039419034e-10
1.41025927658e-10
1.4102800604e-10
1.40602754643e-10
1.42083218314e-10
1.42076760604e-10
1.42149561711e-10
1.42233566495e-10
1.42294112271e-10
1.42313282945e-10
1.42311874936e-10
1.42253566461e-10
1.421451041e-10
1.42084746334e-10
1.42064879555e-10
1.42065103478e-10
1.42039481404e-10
1.42036149758e-10
1.42019520337e-10
1.42055597201e-10
3.67498881928e-10
3.80665364807e-10
1.42034720607e-10
1.42158882668e-10
1.4215685578e-10
1.42035407211e-10
3.73180436304e-10
1.41396309427e-10
1.41441527489e-10
1.41363194662e-10
1.41388494157e-10
3.73970256342e-10
1.42037608445e-10
1.42162376271e-10
1.42155353955e-10
3.69818772822e-10
1.4058200312e-10
1.40557377907e-10
1.40827965043e-10
1.40640567997e-10
3.77999492901e-10
1.40614071247e-10
1.40604955834e-10
3.70750453396e-10
1.414090619e-10
1.40598023356e-10
1.40562640723e-10
1.40599375696e-10
1.4059564486e-10
1.41428849099e-10
1.41379333757e-10
1.40547516023e-10
1.40547177839e-10
1.40544791316e-10
1.40535062196e-10
1.41386369814e-10
3.76965296808e-10
1.4062191205e-10
1.40598271808e-10
3.68249565185e-10
2.08498394457e-10
2.07851452943e-10
2.18524351597e-10
2.17863690122e-10
3.79883461747e-10
2.12540427953e-10
2.11917863088e-10
3.72484929516e-10
3.74881927428e-10
2.1400873351e-10
2.13238942347e-10
2.09818493417e-10
2.09142736095e-10
3.6900840297e-10
1.40569404073e-10
1.54734358465e-10
1.55030887649e-10
1.54190878431e-10
1.54457625038e-10
1.4056022823e-10
1.40734980585e-10
1.58511486424e-10
1.58833853957e-10
1.57861084553e-10
1.58187468203e-10
1.40668833368e-10
3.79010842689e-10
2.17192854306e-10
2.16441033699e-10
1.40622005927e-10
1.55946698215e-10
1.56221653369e-10
1.5534533765e-10
1.55660924728e-10
1.4061806466e-10
3.71692369196e-10
2.11267109323e-10
2.10543667813e-10
2.15659904796e-10
2.14864827683e-10
3.75935228078e-10
1.40613651434e-10
1.57193092534e-10
1.57528081287e-10
1.56515994777e-10
1.56832771035e-10
1.40601656346e-10
1.40594348777e-10
1.41014588063e-10
1.41020744417e-10
1.41002392334e-10
1.41007795329e-10
1.40593486427e-10
1.40595123987e-10
1.40984879312e-10
1.40993717752e-10
1.40950429585e-10
1.40972757816e-10
1.40585939082e-10
1.40539598495e-10
1.40936706228e-10
1.4094202795e-10
1.40930178018e-10
1.40930889697e-10
1.40535858058e-10
1.4055988697e-10
1.40936466113e-10
1.40935857255e-10
1.40908871604e-10
1.40926529117e-10
1.40557021075e-10
1.42165704392e-10
1.42139945806e-10
1.42224124999e-10
1.42272748989e-10
1.42293930253e-10
1.4229521405e-10
1.42253937344e-10
1.42162145881e-10
1.42094586792e-10
1.42074237642e-10
1.42059459249e-10
1.42045185676e-10
1.42035583708e-10
1.4202222742e-10
1.42003483804e-10
1.41982710991e-10
1.42032829801e-10
3.81433486573e-10
3.94396615417e-10
1.4201710589e-10
3.9518544489e-10
4.05709212073e-10
1.42034333074e-10
1.42145782369e-10
1.42126189248e-10
1.42028455265e-10
1.42084451375e-10
1.42067779875e-10
1.42021504558e-10
3.87380788913e-10
1.41295674229e-10
1.41335647131e-10
1.41268704098e-10
1.41281215283e-10
3.87960166087e-10
1.42025021918e-10
1.42113143606e-10
1.42098011709e-10
3.99483694857e-10
1.41236426887e-10
1.41266721163e-10
1.41216095682e-10
1.41223569639e-10
4.00101652384e-10
1.4203110056e-10
1.42051936263e-10
1.42032570918e-10
3.8387804202e-10
1.41198574367e-10
1.40907027999e-10
1.42619074042e-10
1.42172371609e-10
3.90785210479e-10
3.9667305535e-10
1.43068835265e-10
1.42751831221e-10
1.44711128338e-10
1.4424000708e-10
4.02656017884e-10
1.4165005451e-10
1.41307551268e-10
3.84818856503e-10
1.4052983027e-10
1.40508005921e-10
1.41318992416e-10
1.41269315937e-10
1.40522725153e-10
1.405494083e-10
3.89772576935e-10
1.42038147961e-10
1.41749103938e-10
1.43592680502e-10
1.43192613826e-10
3.97336116317e-10
1.41248766339e-10
1.40557372504e-10
1.40555452483e-10
1.40563140375e-10
1.40559487398e-10
1.41259774616e-10
1.41219295737e-10
1.40538437997e-10
1.40568370254e-10
1.40551367606e-10
1.40539711555e-10
1.41219844174e-10
4.01874451925e-10
1.44105058633e-10
1.43722224795e-10
3.82210655155e-10
2.19956408225e-10
2.19226527053e-10
2.30231640512e-10
2.29434430171e-10
3.93327423795e-10
3.95704995354e-10
2.3138782503e-10
2.30869498215e-10
2.4057944527e-10
2.39761844476e-10
4.04641182542e-10
2.24217632057e-10
2.23606277987e-10
3.86670270684e-10
3.88465849888e-10
2.25367447411e-10
2.24804117212e-10
2.35136573698e-10
2.34505801891e-10
3.98797921038e-10
4.00665162792e-10
2.36302112669e-10
2.35729890733e-10
2.21434395148e-10
2.20695427001e-10
3.83019568601e-10
1.59168851662e-10
1.59521382694e-10
1.40978185293e-10
1.42469895811e-10
1.64246076307e-10
1.64656143884e-10
1.63319542291e-10
1.63785006001e-10
1.42317811523e-10
3.92023777911e-10
2.28491847186e-10
2.275281339e-10
2.32453464507e-10
2.31891362289e-10
3.96149220676e-10
1.42960446683e-10
1.65567162187e-10
1.65871056642e-10
1.65003672827e-10
1.65290873079e-10
1.42859065996e-10
1.445551403e-10
1.69808037488e-10
1.70228414236e-10
1.68990211962e-10
1.69368594553e-10
1.44378209506e-10
4.03567423351e-10
2.38942386792e-10
2.3821737779e-10
3.85795569445e-10
2.22928277892e-10
2.22180186024e-10
2.26650579307e-10
2.25954080396e-10
3.89028121775e-10
1.43456207829e-10
1.66944711534e-10
1.67294173507e-10
1.66217375638e-10
1.66578977759e-10
1.43322673467e-10
3.98068480768e-10
2.33811184622e-10
2.3311457992e-10
2.37538795695e-10
2.36914051706e-10
4.01241696606e-10
1.4397531643e-10
1.68291305369e-10
1.68633727761e-10
1.67626159458e-10
1.67950549968e-10
1.43846275756e-10
1.41085551556e-10
1.59884703775e-10
1.60247704859e-10
1.41307877862e-10
1.40513136092e-10
1.40548635694e-10
1.60604862549e-10
1.60967230876e-10
1.41424021443e-10
1.41543741579e-10
1.61313993521e-10
1.61633410465e-10
1.40547194817e-10
1.40524838773e-10
1.41275257258e-10
1.6194350414e-10
1.62244092532e-10
1.41842826211e-10
1.41939130429e-10
1.62551045768e-10
1.6289812755e-10
1.40511998364e-10
1.40856449635e-10
1.40881882872e-10
1.4083988907e-10
1.40843927419e-10
1.40507376662e-10
1.40531926056e-10
1.40848797259e-10
1.40839820194e-10
1.40849613026e-10
1.40853022311e-10
1.40547356318e-10
1.40541730369e-10
1.40833750552e-10
1.40843938636e-10
1.40819320158e-10
1.40822746954e-10
1.40525740903e-10
1.40521990608e-10
1.40811375655e-10
1.40812912817e-10
1.40823789628e-10
1.40812020901e-10
1.40526475942e-10
1.40564305784e-10
1.40825787584e-10
1.40826193055e-10
1.40819275305e-10
1.40823435763e-10
1.40561960712e-10
1.40554928877e-10
1.40808108854e-10
1.40814038047e-10
1.40794924013e-10
1.40801819017e-10
1.40554214232e-10
1.40543291706e-10
1.40775969481e-10
1.4078509646e-10
1.40768872e-10
1.40771394337e-10
1.40540402444e-10
1.40548393845e-10
1.40779180839e-10
1.40767634744e-10
1.40782296414e-10
1.40784813043e-10
1.40565139056e-10
1.42356651812e-10
1.42217395135e-10
1.42271937605e-10
1.42283693292e-10
1.42282609048e-10
1.4225304631e-10
1.42176027451e-10
1.4210625003e-10
1.42077818277e-10
1.42070327043e-10
1.42058043912e-10
1.42064982669e-10
1.42054488998e-10
1.42050043421e-10
1.42040144818e-10
1.42019918785e-10
1.42004516353e-10
1.42041619414e-10
1.41961488891e-10
1.41946133093e-10
1.42006605145e-10
1.41940635864e-10
1.41935151636e-10
1.42002556096e-10
4.0670545234e-10
4.15578667395e-10
1.42052537764e-10
1.42002292641e-10
1.41973946821e-10
1.42043801535e-10
4.11313406501e-10
1.41168668534e-10
1.41199373712e-10
1.41124063218e-10
1.41162909636e-10
4.1192636773e-10
1.42049332358e-10
1.41938825473e-10
1.41903188712e-10
4.09080635208e-10
1.45356070509e-10
1.44875961279e-10
1.47057443673e-10
1.46575794587e-10
4.13632149579e-10
1.4582247012e-10
1.4549847834e-10
4.09644173789e-10
1.4117057972e-10
1.40556034382e-10
1.40573592644e-10
1.40568771818e-10
1.40558998962e-10
1.41178922952e-10
1.41127982987e-10
1.40573524019e-10
1.40566314976e-10
1.40598198137e-10
1.40592794443e-10
1.411479824e-10
4.13265893544e-10
1.46438297245e-10
1.45999512123e-10
4.07664337609e-10
2.42205918285e-10
2.41389219321e-10
2.50564519726e-10
2.49918180642e-10
4.14609564018e-10
2.45557520892e-10
2.45081726242e-10
4.107212408e-10
4.1241283419e-10
2.46753023149e-10
2.46173819614e-10
2.43702258015e-10
2.43020605049e-10
4.0846213443e-10
1.45196475309e-10
1.71503422682e-10
1.71892217057e-10
1.70651526625e-10
1.71074324463e-10
1.45036075104e-10
1.46893542402e-10
1.7554859524e-10
1.75939962977e-10
1.74746490981e-10
1.75132059889e-10
1.46726572465e-10
4.1401024778e-10
2.49213407279e-10
2.48533103305e-10
1.45705978222e-10
1.72702865464e-10
1.72999729723e-10
1.7220244043e-10
1.72450829411e-10
1.4560308073e-10
4.10214885269e-10
2.44662916255e-10
2.4423542131e-10
2.47889967297e-10
2.47311472632e-10
4.12815626037e-10
1.46309958141e-10
1.74090384353e-10
1.74401098264e-10
1.73394499482e-10
1.7376854053e-10
1.46168435785e-10
1.40567935019e-10
1.40768764175e-10
1.40776019855e-10
1.40744717107e-10
1.40758182537e-10
1.40565427394e-10
1.40554001064e-10
1.40735009862e-10
1.40738509933e-10
1.40747049423e-10
1.40734858851e-10
1.40556349225e-10
1.40602925276e-10
1.40751717948e-10
1.40754524068e-10
1.40733138291e-10
1.40743921475e-10
1.40600147623e-10
1.40568202742e-10
1.40709764479e-10
1.40716822122e-10
1.40698593161e-10
1.40703989943e-10
1.40567180713e-10
1.42609287124e-10
1.4225692615e-10
1.42286736154e-10
1.42279569013e-10
1.42280222908e-10
1.42259434088e-10
1.4225424736e-10
1.42203347765e-10
1.42187946576e-10
1.4212971171e-10
1.42115765612e-10
1.42079947118e-10
1.42057552504e-10
1.42048101342e-10
1.42046038838e-10
1.42034777069e-10
1.42000972685e-10
1.42057908703e-10
1.4193033588e-10
1.41925866188e-10
1.41998394234e-10
4.16567196392e-10
4.25406078385e-10
1.42071253294e-10
1.41867161861e-10
1.41823914243e-10
1.4206187531e-10
4.21014383027e-10
1.41087935277e-10
1.41122221949e-10
1.41066427294e-10
1.41076967356e-10
4.21586619298e-10
1.42065575595e-10
1.41782834732e-10
1.41732122295e-10
4.18889155914e-10
1.47677343553e-10
1.47206248922e-10
1.49505413548e-10
1.49092969541e-10
4.24308328474e-10
1.4837471752e-10
1.47871173132e-10
4.19672978011e-10
1.41110917924e-10
1.40628525886e-10
1.40603939358e-10
1.40566835106e-10
1.40625029529e-10
1.41122258993e-10
1.41076257643e-10
1.40621716033e-10
1.40651369915e-10
1.40602748684e-10
1.40611949815e-10
1.41076504267e-10
4.23576601277e-10
1.48925799014e-10
1.48494680943e-10
4.17496164423e-10
2.51702082168e-10
2.51144750328e-10
2.59686987502e-10
2.59244642592e-10
4.25108741053e-10
2.55654100817e-10
2.5509068416e-10
4.20650894684e-10
4.22249511163e-10
2.56619743646e-10
2.56149039765e-10
2.52905364758e-10
2.5228772411e-10
4.1826974368e-10
1.47499342878e-10
1.76948986772e-10
1.77335715232e-10
1.76287023572e-10
1.76601455865e-10
1.47342766694e-10
1.49363740391e-10
1.8114042797e-10
1.8143166059e-10
1.8058791374e-10
1.80877673937e-10
1.49235503482e-10
4.24749795073e-10
2.5880396327e-10
2.58323742089e-10
1.48234393766e-10
1.78600468959e-10
1.78920990478e-10
1.77777079484e-10
1.78212610532e-10
1.48057942449e-10
4.20315471484e-10
2.54425094955e-10
2.53654935741e-10
2.57676745292e-10
2.57107753917e-10
4.22862725093e-10
1.48767349524e-10
1.79852286946e-10
1.80215870008e-10
1.792081426e-10
1.79513919654e-10
1.48625207504e-10
1.40577581429e-10
1.4070559523e-10
1.40696709676e-10
1.40723411982e-10
1.40722825236e-10
1.40609326489e-10
1.40629680279e-10
1.4071674463e-10
1.40721655954e-10
1.40684381111e-10
1.4070163134e-10
1.40617799342e-10
1.40605321414e-10
1.40676220507e-10
1.40678054406e-10
1.40673597418e-10
1.40674534955e-10
1.40607834615e-10
1.40634547941e-10
1.40693822911e-10
1.40686350749e-10
1.40691064025e-10
1.40694646702e-10
1.40640169806e-10
1.42312422657e-10
1.42277837562e-10
1.43268549899e-10
1.4291604575e-10
1.42448772043e-10
1.42401325598e-10
1.44065320884e-10
1.48069864849e-10
1.42256572542e-10
1.42291239471e-10
1.42265182071e-10
1.42213972734e-10
1.42146834387e-10
1.42096513445e-10
1.42064277211e-10
1.42051370356e-10
1.42044765076e-10
1.42043285483e-10
1.4203519888e-10
1.41995727507e-10
1.42075555729e-10
1.41924170614e-10
1.4192736244e-10
1.41995948398e-10
4.25747798255e-10
4.34444762393e-10
1.42098449275e-10
1.41681852417e-10
1.41623358563e-10
1.4208454247e-10
4.292261256e-10
1.41023445002e-10
1.41036837094e-10
1.40923732069e-10
1.41024857833e-10
4.29494480861e-10
1.42089044649e-10
1.41567861815e-10
1.41489311253e-10
4.27364813902e-10
1.50347890083e-10
1.49685274757e-10
1.52304523381e-10
1.5164831965e-10
4.3223497643e-10
1.50757888249e-10
1.50542469186e-10
4.2805742029e-10
1.41006339297e-10
1.40621241674e-10
1.40591355215e-10
1.40663102785e-10
1.40653731242e-10
1.41008692018e-10
1.40939006887e-10
1.40704721396e-10
1.40625771682e-10
1.40621683525e-10
1.40708719011e-10
1.40994251893e-10
4.31253754768e-10
1.51437673399e-10
1.50859338277e-10
4.26057084224e-10
2.6085517454e-10
2.60219896391e-10
2.69377736192e-10
2.68654710683e-10
4.33988500881e-10
2.63926816302e-10
2.63600618213e-10
4.28824516832e-10
4.29805956194e-10
2.64930379869e-10
2.6436918674e-10
2.6230177957e-10
2.61579049597e-10
4.26534730003e-10
1.50122873708e-10
1.82689955101e-10
1.83181147645e-10
1.81786539093e-10
1.82215041356e-10
1.49894517541e-10
1.52087294529e-10
1.87047861169e-10
1.87539583403e-10
1.86110682226e-10
1.86574966866e-10
1.51863420527e-10
4.33218189634e-10
2.67855566043e-10
2.67059254376e-10
1.50696418958e-10
1.8400623191e-10
1.84177079751e-10
1.83569905606e-10
1.83816993973e-10
1.50618791681e-10
4.28418547374e-10
2.63259131468e-10
2.62866298306e-10
2.66315435093e-10
2.6558791464e-10
4.30352002557e-10
1.51240014353e-10
1.85231032736e-10
1.85659084738e-10
1.84432459867e-10
1.84821698242e-10
1.5104693512e-10
1.40671228005e-10
1.40677220584e-10
1.40685955971e-10
1.40629179305e-10
1.40657616153e-10
1.4067301118e-10
1.40596751636e-10
1.4060487959e-10
1.40611306981e-10
1.40623354695e-10
1.40605953242e-10
1.40589419043e-10
1.40677437531e-10
1.40686934811e-10
1.40674349559e-10
1.40674205944e-10
1.40687831993e-10
1.40700667505e-10
1.40668598257e-10
1.40589648633e-10
1.40635906752e-10
1.40551506283e-10
1.40565061766e-10
1.40646157975e-10
1.42305335964e-10
1.42302094851e-10
1.49706936051e-10
1.48987766691e-10
1.42275090644e-10
1.4226662057e-10
1.49349425147e-10
1.42148124469e-10
1.42138276447e-10
1.42258028878e-10
1.42284888736e-10
1.47926949361e-10
1.42311140702e-10
1.42281065193e-10
1.48864154074e-10
1.42274329848e-10
1.42288496629e-10