/*--------------------------------*- C++ -*----------------------------------*\
  =========                 |
  \\      /  F ield         | OpenFOAM: The Open Source CFD Toolbox
   \\    /   O peration     | Website:  https://openfoam.org
    \\  /    A nd           | Version:  8
     \\/     M anipulation  |
\*---------------------------------------------------------------------------*/
FoamFile
{
    version     2.0;
    format      ascii;
    class       volScalarField;
    location    "1.2e-05";
    object      mixMu;
}
// * * * * * * * * * * * * * * * * * * * * * * * * * * * * * * * * * * * * * //

dimensions      [1 -1 -1 0 0 0 0];

internalField   nonuniform List<scalar> 
49986
(
9.94763049068e-07
9.94763049489e-07
9.94763051302e-07
9.9476305874e-07
9.94763089367e-07
9.94763215542e-07
9.94763735456e-07
9.94765883721e-07
9.94774763922e-07
9.948113531e-07
9.94961321988e-07
9.94852675802e-07
9.94944429072e-07
9.95169082799e-07
1.00692285391e-06
9.9607688508e-07
1.13477227474e-06
1.21647917007e-06
1.01297938937e-06
9.95516446655e-07
1.01343601686e-06
9.97116329493e-07
9.99806816111e-07
9.96532168956e-07
9.98212946843e-07
1.17932405415e-06
1.02186426845e-06
9.95006376732e-07
1.00147740213e-06
1.02131459686e-06
1.18354271754e-06
1.00006556859e-06
1.02047976574e-06
1.00537410286e-06
1.15610101437e-06
1.03118121636e-06
9.96542122381e-07
9.93095350926e-07
9.9636894181e-07
1.20301960834e-06
1.0111646532e-06
1.01597787964e-06
1.01379737719e-06
1.00340640105e-06
9.9844374638e-07
1.0020599706e-06
1.01104222507e-06
1.02952369332e-06
1.15963035695e-06
1.01353675961e-06
1.0275752762e-06
1.0172341846e-06
9.95190015617e-07
1.0246049005e-06
9.9927835382e-07
1.00521616857e-06
1.00005087313e-06
9.97332765257e-07
1.01221859965e-06
1.00397604379e-06
1.0117921028e-06
1.19585215386e-06
9.97518436939e-07
1.00741795663e-06
1.00381836762e-06
1.01180442965e-06
1.0045916283e-06
1.01459674184e-06
1.01678761237e-06
1.0126396728e-06
1.01078468513e-06
1.01656236724e-06
1.01112068855e-06
1.15334331816e-06
1.04236522095e-06
1.02271688122e-06
1.00070813489e-06
1.00111793464e-06
1.21242315649e-06
1.00149032917e-06
1.00610852665e-06
1.172490835e-06
1.01985368845e-06
1.02378882899e-06
1.02327942128e-06
1.02018062773e-06
1.01626154396e-06
1.01958443781e-06
1.18678982826e-06
1.00056918915e-06
1.00007558962e-06
1.01997297848e-06
1.01858890931e-06
1.01729581539e-06
1.03126867552e-06
1.0398448814e-06
1.15518533991e-06
1.02399818104e-06
1.03252060868e-06
1.03142078737e-06
1.00202874796e-06
1.02402506094e-06
1.00685737823e-06
9.94240591967e-07
9.92040622835e-07
9.90672529753e-07
9.94183729104e-07
9.9325874784e-07
9.95290162467e-07
1.20595739438e-06
1.00111705535e-06
1.00120050622e-06
1.01594264524e-06
1.01538160417e-06
1.01414268468e-06
1.01799028415e-06
1.00982215253e-06
1.00348484696e-06
1.02628374572e-06
1.01839763194e-06
1.02476769841e-06
1.16265502152e-06
1.01377346274e-06
1.0216750339e-06
1.02639384662e-06
1.02604573371e-06
1.02158812137e-06
1.02299953163e-06
1.0253123135e-06
1.02345882417e-06
9.99181943798e-07
9.96239182034e-07
9.94873382457e-07
1.01203941675e-06
1.00117594901e-06
1.01051876444e-06
1.00130419769e-06
1.00064543852e-06
1.19179505471e-06
9.99767745417e-07
9.96310173555e-07
9.95216664182e-07
1.00087468964e-06
9.98840903685e-07
1.00272181178e-06
1.01717676963e-06
1.01832576637e-06
1.0174503917e-06
1.01599481262e-06
1.01790802818e-06
1.01762227546e-06
1.01587471242e-06
1.01370231187e-06
1.01573114129e-06
9.94763090856e-07
9.94763155858e-07
9.9476339741e-07
9.94764176245e-07
9.94766712436e-07
9.94774929301e-07
9.94801460417e-07
9.94886424465e-07
9.95157039853e-07
9.96017588147e-07
9.98550395325e-07
1.00139277812e-06
1.0086222118e-06
1.00565670979e-06
1.00262157193e-06
1.00241591113e-06
1.22177106374e-06
1.34713555166e-06
9.970222188e-07
1.00225151385e-06
9.97958293992e-07
1.00346924895e-06
1.27558358189e-06
9.95681037136e-07
9.99573464496e-07
9.93947234097e-07
9.95034009114e-07
1.28416452853e-06
9.99487029601e-07
9.95542351329e-07
9.95025495137e-07
1.24440847704e-06
9.90251531929e-07
9.91651022101e-07
9.87094654657e-07
9.88065775768e-07
1.31984639841e-06
9.89158052263e-07
9.90085762452e-07
1.25203724348e-06
9.96361686996e-07
9.93477498183e-07
9.93048089064e-07
9.95621940802e-07
9.94606917614e-07
9.97406713493e-07
9.94043030466e-07
9.91556069846e-07
9.91263897622e-07
9.92623403883e-07
9.92165330936e-07
9.94538401541e-07
1.31200101382e-06
9.88395285069e-07
9.88890843476e-07
1.22894004205e-06
1.00106436291e-06
1.00057308086e-06
1.01873032494e-06
1.01700012782e-06
1.33862699379e-06
1.00683780284e-06
1.00572917196e-06
1.26764959665e-06
1.29433739419e-06
1.00916242851e-06
1.00767903408e-06
1.00271303254e-06
1.00195688549e-06
1.23668928599e-06
9.90361652491e-07
9.87574436308e-07
9.87487316972e-07
9.88883707666e-07
9.880129179e-07
9.90724773325e-07
9.87244945718e-07
9.84622830358e-07
9.84456795561e-07
9.85340665545e-07
9.85015358599e-07
9.87670600928e-07
1.32898265425e-06
1.01510999209e-06
1.01384974225e-06
9.89481872923e-07
9.86617053757e-07
9.86239615341e-07
9.87336342173e-07
9.86999233703e-07
9.89771144805e-07
1.25954892184e-06
1.00494191203e-06
1.0038952111e-06
1.01289359025e-06
1.01156887762e-06
1.30421394409e-06
9.88545429061e-07
9.85617968837e-07
9.85567350791e-07
9.859697687e-07
9.85644184002e-07
9.88613406032e-07
9.94763575416e-07
9.94764180911e-07
9.94766458875e-07
9.94773003306e-07
9.9479199463e-07
9.94845913937e-07
9.94995394091e-07
9.9539932723e-07
9.96433499948e-07
9.98338737573e-07
9.99686577911e-07
1.0009907228e-06
9.96733804187e-07
9.95949019726e-07
9.94431164703e-07
9.98588592507e-07
9.95895292974e-07
9.98885969574e-07
9.94739834335e-07
9.94757839885e-07
9.9540026484e-07
1.35667818102e-06
1.48876082264e-06
9.94476897454e-07
1.49763901361e-06
1.61114467364e-06
9.94544417007e-07
9.94689813506e-07
9.94341503648e-07
9.94845054475e-07
9.94171853153e-07
9.94376711551e-07
9.94460325856e-07
1.41905446564e-06
9.93631035186e-07
9.93896113951e-07
9.93378158315e-07
9.935245e-07
1.42747585185e-06
9.94452805413e-07
9.93987474836e-07
9.94038126796e-07
1.55185935161e-06
9.93278226028e-07
9.93431312607e-07
9.92286119171e-07
9.93099793628e-07
1.55877333256e-06
9.94558043908e-07
9.94438319449e-07
9.9439781854e-07
1.381651577e-06
9.86677649805e-07
9.86997537267e-07
9.86063382373e-07
9.86096217075e-07
1.46404157634e-06
1.52155608671e-06
9.85927645101e-07
9.86021362158e-07
9.85215683427e-07
9.85395749622e-07
1.58818375594e-06
9.86048330705e-07
9.86503925071e-07
1.39016048996e-06
9.93724354662e-07
9.90551306269e-07
9.90253637788e-07
9.91089010206e-07
9.90825894454e-07
9.93771126883e-07
9.93362182626e-07
9.8988877711e-07
9.89890531919e-07
9.90113058198e-07
9.89920139318e-07
9.93363032816e-07
1.45686997418e-06
9.86105839516e-07
9.86046385262e-07
9.85518059072e-07
9.85869275842e-07
1.5298850685e-06
9.93386916323e-07
9.89512997347e-07
9.89267061459e-07
9.898324977e-07
9.89704927912e-07
9.93436505064e-07
9.92481955002e-07
9.87799016345e-07
9.87633353847e-07
9.89047682208e-07
9.87991068556e-07
9.92797235194e-07
1.58274183881e-06
9.85531704816e-07
9.85530309054e-07
1.36671505574e-06
1.02281328399e-06
1.02070079028e-06
1.0568112737e-06
1.05416411029e-06
1.4805595659e-06
1.50681180276e-06
1.06261659172e-06
1.05956622492e-06
1.10174584473e-06
1.09819728116e-06
1.60177607696e-06
1.03564886125e-06
1.0333095338e-06
1.41014961441e-06
1.43674427846e-06
1.04088650854e-06
1.03809693474e-06
1.0783655131e-06
1.07616447825e-06
1.54577255489e-06
1.56698253441e-06
1.08394610253e-06
1.08095601253e-06
1.02644680369e-06
1.02477572905e-06
1.37443491398e-06
9.86829590038e-07
9.84461417454e-07
9.84472844607e-07
9.84459371578e-07
9.84445622076e-07
9.86900126084e-07
9.86094668004e-07
9.85323050551e-07
9.85375682366e-07
9.85183996547e-07
9.85224637324e-07
9.86088695306e-07
1.47179980163e-06
1.05136212626e-06
1.04894302464e-06
1.06760690959e-06
1.06520410294e-06
1.51439775514e-06
9.85972110539e-07
9.85681207422e-07
9.85755598448e-07
9.8542550757e-07
9.85563385499e-07
9.8599218688e-07
9.8517801443e-07
9.88156122676e-07
9.88886833843e-07
9.86974290675e-07
9.87544270249e-07
9.85260977931e-07
1.59423991574e-06
1.09526986795e-06
1.09249932341e-06
9.86230348971e-07
9.8445963168e-07
9.84414939226e-07
9.84433662113e-07
9.84486035732e-07
9.86360606213e-07
1.40035876715e-06
1.03085873401e-06
1.02835429696e-06
1.04664378901e-06
1.04389247833e-06
1.4473681775e-06
9.86113488081e-07
9.84982181098e-07
9.85141859144e-07
9.84494840893e-07
9.84701682949e-07
9.86069994562e-07
9.85678795599e-07
9.85946853319e-07
9.85907337681e-07
9.85860699469e-07
9.85933425014e-07
9.85783914159e-07
1.53873132198e-06
1.07355438968e-06
1.07041274768e-06
1.08976162466e-06
1.08694514388e-06
1.5757489745e-06
9.85600278891e-07
9.86331007101e-07
9.86528610589e-07
9.86044687142e-07
9.86168595436e-07
9.85511145792e-07
9.90243924561e-07
9.90175351831e-07
9.87586379169e-07
9.87607836539e-07
9.90111915497e-07
9.90056105376e-07
9.89844658798e-07
9.89551525497e-07
9.88446581395e-07
9.9476663419e-07
9.94769539728e-07
9.94781251998e-07
9.94811261272e-07
9.94889089688e-07
9.95083811314e-07
9.95549936902e-07
9.9656958411e-07
9.96585719958e-07
9.97395948921e-07
9.97776983482e-07
9.97709403562e-07
9.98330451511e-07
9.9764307285e-07
9.98204720536e-07
9.96088305825e-07
9.94973966814e-07
9.94581739936e-07
9.94783358143e-07
9.94942700773e-07
9.94953481718e-07
1.622797762e-06
1.74101064975e-06
9.95094539239e-07
9.9445848797e-07
9.94631905925e-07
9.94643227474e-07
1.67552899074e-06
9.92849244119e-07
9.92289181275e-07
9.92390774075e-07
9.92804145366e-07
1.68473809807e-06
9.94854703358e-07
9.94890123585e-07
9.95054242324e-07
1.65065161028e-06
9.85202229537e-07
9.85301706686e-07
9.83847470897e-07
9.84284064355e-07
1.72040412882e-06
9.84941233478e-07
9.85069708425e-07
1.65580475152e-06
9.92675407505e-07
9.87760012252e-07
9.87556714658e-07
9.87726051267e-07
9.87841114629e-07
9.92429006996e-07
9.92534267761e-07
9.86770851252e-07
9.86374318082e-07
9.87434465854e-07
9.86934970026e-07
9.92724184796e-07
1.71408594574e-06
9.84447750969e-07
9.84871449775e-07
1.63629551141e-06
1.11088107691e-06
1.10602801404e-06
1.15802990234e-06
1.15444625875e-06
1.73415754695e-06
1.12841382914e-06
1.12517585598e-06
1.66810545508e-06
1.6956727314e-06
1.13654385989e-06
1.13213868814e-06
1.11710610727e-06
1.11453264452e-06
1.64512808618e-06
9.85297112605e-07
9.91682075862e-07
9.92055731353e-07
9.89757771941e-07
9.90701173541e-07
9.85325192719e-07
9.83947052786e-07
1.00071143458e-06
1.00174202351e-06
9.99001325209e-07
9.99772865334e-07
9.84100139871e-07
1.72700732891e-06
1.15089998242e-06
1.14774118607e-06
9.84960369971e-07
9.9384351366e-07
9.94817435475e-07
9.92514236799e-07
9.93034662096e-07
9.84966486868e-07
1.66168756297e-06
1.12220839681e-06
1.11949556471e-06
1.14470391411e-06
1.14108806236e-06
1.70641050408e-06
9.84579527014e-07
9.97189026566e-07
9.98260795597e-07
9.95462753358e-07
9.96176364446e-07
9.847387444e-07
9.9029949368e-07
9.90460574802e-07
9.87110428343e-07
9.8661794654e-07
9.89961616556e-07
9.90097704512e-07
9.89786324932e-07
9.8986506399e-07
9.86492296839e-07
9.87283162402e-07
9.90610377388e-07
9.90733141304e-07
9.9086196305e-07
9.90903580429e-07
9.87635699951e-07
9.87682272205e-07
9.90913173342e-07
9.90817749693e-07
9.90706626319e-07
9.90605175028e-07
9.87878809425e-07
9.87817826296e-07
9.90458304383e-07
9.90341895436e-07
9.94780106796e-07
9.94789115481e-07
9.94844008384e-07
9.94831971015e-07
9.94965669139e-07
9.94928963171e-07
9.95206513019e-07
9.95155117285e-07
9.95708973601e-07
9.95649262767e-07
9.96511507794e-07
9.97149682782e-07
9.97357408914e-07
9.97296151541e-07
9.96394393558e-07
9.95245351595e-07
9.95038374721e-07
9.95211628977e-07
9.95152484352e-07
9.95222679443e-07
9.95193766391e-07
1.74748036835e-06
1.84001460593e-06
9.95040461346e-07
9.9502487931e-07
9.94928892294e-07
9.95175798036e-07
1.79496948143e-06
9.91939655147e-07
9.9225456214e-07
9.9145895655e-07
9.9184293987e-07
1.80000685704e-06
9.95089568413e-07
9.94832177062e-07
9.94773427428e-07
1.76655689572e-06
9.83680826164e-07
9.83798503314e-07
9.83354897394e-07
9.83443783004e-07
1.8238515938e-06
9.8356402714e-07
9.83666174702e-07
1.77417974223e-06
9.91988495866e-07
9.85990000229e-07
9.8584007569e-07
9.86277652765e-07
9.86054287294e-07
9.92063060681e-07
9.91598601736e-07
9.8546555147e-07
9.85212567023e-07
9.85800095482e-07
9.85566827484e-07
9.91731873256e-07
1.81688144792e-06
9.83493241686e-07
9.83561929742e-07
1.75355933967e-06
1.16494954188e-06
1.16148047734e-06
1.21350071336e-06
1.2105464488e-06
1.83550510596e-06
1.18639750782e-06
1.18315242624e-06
1.78907166912e-06
1.8049715492e-06
1.19263900756e-06
1.18947437165e-06
1.17190211578e-06
1.16833459543e-06
1.75973352893e-06
9.83728697804e-07
1.00489039884e-06
1.00590084597e-06
1.00277092812e-06
1.00385443211e-06
9.83778417055e-07
9.83370506624e-07
1.01765593837e-06
1.01865064133e-06
1.01554055221e-06
1.01663154723e-06
9.83399455327e-07
1.83024798e-06
1.20738165054e-06
1.20383190643e-06
9.83600525897e-07
1.00904073509e-06
1.01003256074e-06
1.00698817313e-06
1.00803264109e-06
9.83650898778e-07
1.78202296711e-06
1.17961211221e-06
1.17578816209e-06
1.19988680423e-06
1.19607801197e-06
1.81053933365e-06
9.83536615395e-07
1.01320215222e-06
1.01437561889e-06
1.01103658398e-06
1.01212694721e-06
9.83573974815e-07
9.86237980536e-07
9.89654323475e-07
9.89702542098e-07
9.89463724789e-07
9.89554072505e-07
9.86151098125e-07
9.85939184653e-07
9.89372005639e-07
9.89402921703e-07
9.8929871379e-07
9.89342133377e-07
9.85893969863e-07
9.8575469932e-07
9.89181011824e-07
9.89244083093e-07
9.88996911045e-07
9.89092483757e-07
9.85673153444e-07
9.85372692505e-07
9.88800760304e-07
9.88888177935e-07
9.88596388097e-07
9.886960128e-07
9.85290283702e-07
9.94827162436e-07
9.94963601344e-07
9.94971940546e-07
9.95253807393e-07
9.95736071729e-07
9.96437051722e-07
9.96950534442e-07
9.97133736873e-07
9.97099335008e-07
9.96497239834e-07
9.95580913688e-07
9.9518745292e-07
9.95241358357e-07
9.94979779821e-07
9.95177891668e-07
9.95071264897e-07
9.95206482706e-07
1.84435124139e-06
1.91749622091e-06
9.94737578812e-07
9.94699167654e-07
9.94584857179e-07
9.94899092565e-07
1.88076457362e-06
9.90896937966e-07
9.91299053547e-07
9.9063484068e-07
9.9080768963e-07
1.88421425963e-06
9.94824807225e-07
9.94541657388e-07
9.94510832783e-07
1.86080867819e-06
9.83246142972e-07
9.83345331539e-07
9.83514695445e-07
9.83331264303e-07
1.90273850829e-06
9.83439636139e-07
9.83240462853e-07
1.8675387565e-06
9.91017092337e-07
9.84739519603e-07
9.84737744076e-07
9.85133125758e-07
9.84793056107e-07
9.9114576995e-07
9.90677349106e-07
9.84377391207e-07
9.84348388869e-07
9.84701831293e-07
9.84450178285e-07
9.90757320197e-07
1.89743916524e-06
9.8333332667e-07
9.83453302371e-07
1.84903616791e-06
1.21958743039e-06
1.21643230828e-06
1.26787946423e-06
1.26445469984e-06
1.91338934162e-06
1.24106404338e-06
1.23819542577e-06
1.87738812321e-06
1.88804500599e-06
1.24669691764e-06
1.24381919351e-06
1.22739722822e-06
1.22330350397e-06
1.85455084492e-06
9.83233242078e-07
1.0219520491e-06
1.0233123295e-06
1.01967883847e-06
1.02072101385e-06
9.83260957263e-07
9.83455564617e-07
1.03644526111e-06
1.03777611046e-06
1.03371889065e-06
1.03501874594e-06
9.83356517778e-07
1.90836806354e-06
1.26073915116e-06
1.25707855364e-06
9.83331696e-07
1.02694669705e-06
1.02812584864e-06
1.02463578594e-06
1.02581631529e-06
9.83252472409e-07
1.87321254107e-06
1.23506999685e-06
1.23154968022e-06
1.25343394863e-06
1.24991587623e-06
1.89253945452e-06
9.83343227712e-07
1.03118581645e-06
1.03241640949e-06
1.02912527665e-06
1.03007886243e-06
9.83404389913e-07
9.85013493884e-07
9.88381719802e-07
9.88490499192e-07
9.88151819267e-07
9.88235480297e-07
9.84887250439e-07
9.84719152495e-07
9.88037038588e-07
9.8807552601e-07
9.87949584264e-07
9.88002354154e-07
9.84740261581e-07
9.84638860899e-07
9.87835625467e-07
9.87892969075e-07
9.87689868251e-07
9.87756717065e-07
9.84529994194e-07
9.84357244748e-07
9.87556459431e-07
9.8760755265e-07
9.87507743773e-07
9.87523237532e-07
9.84351062934e-07
9.95277394295e-07
9.95230061188e-07
9.95763606483e-07
9.96379083352e-07
9.96822565253e-07
9.96962964788e-07
9.96952653346e-07
9.96525588786e-07
9.95730941634e-07
9.95288589112e-07
9.95142856823e-07
9.95144615036e-07
9.94706255804e-07
9.94932369795e-07
9.94810457569e-07
9.95074931777e-07
1.92079765557e-06
1.9720456209e-06
9.94578178482e-07
9.94481574042e-07
9.94418831286e-07
9.94654388785e-07
1.94300250059e-06
9.90235935344e-07
9.90568228824e-07
9.899924907e-07
9.90178473406e-07
1.94603263819e-06
9.94624726859e-07
9.94396941011e-07
9.94314013851e-07
1.92967639331e-06
9.8365934735e-07
9.83525140314e-07
9.84683907541e-07
9.83899208367e-07
1.96157189906e-06
9.83815115676e-07
9.83810755037e-07
1.93332292203e-06
9.90329654757e-07
9.84303817989e-07
9.84035887097e-07
9.84322386445e-07
9.84288195566e-07
9.90475055152e-07
9.90111114744e-07
9.83911839554e-07
9.83899675786e-07
9.83901715434e-07
9.8382333184e-07
9.9016285114e-07
1.95754776152e-06
9.83783758487e-07
9.83682915046e-07
1.92367007392e-06
1.27367466435e-06
1.2709256581e-06
1.31666824285e-06
1.31388443933e-06
1.96903322263e-06
1.29101652922e-06
1.28832573593e-06
1.94027683083e-06
1.94953684767e-06
1.29731775188e-06
1.29400227929e-06
1.27922928436e-06
1.27638971387e-06
1.92657086359e-06
9.83578226305e-07
1.04113304398e-06
1.04235404053e-06
1.03893675281e-06
1.04001464758e-06
9.8353600573e-07
9.84335970992e-07
1.05695945605e-06
1.058316179e-06
1.05414427914e-06
1.05557391754e-06
9.84085532069e-07
1.96559672094e-06
1.31101918648e-06
1.3077120552e-06
9.83893911331e-07
1.04625983696e-06
1.04738669211e-06
1.04370031894e-06
1.04507498122e-06
9.83884238717e-07
1.93714176559e-06
1.28552238685e-06
1.28232676864e-06
1.30437740479e-06
1.30097516099e-06
1.95356939169e-06
9.83746359151e-07
1.05136509089e-06
1.05275510836e-06
1.04856946952e-06
1.04987506435e-06
9.83697201149e-07
9.84282133569e-07
9.8742390122e-07
9.87469415953e-07
9.87333770461e-07
9.87373714106e-07
9.84274077125e-07
9.84280539455e-07
9.87204423727e-07
9.87269675146e-07
9.86950397933e-07
9.87114952936e-07
9.84210053937e-07
9.83860924891e-07
9.86848804352e-07
9.86888239018e-07
9.86800211572e-07
9.86805672742e-07
9.83830646682e-07
9.84000260145e-07
9.86845951063e-07
9.86841724606e-07
9.86642087224e-07
9.86772462631e-07
9.83975551358e-07
9.95881893677e-07
9.9569314158e-07
9.96309917963e-07
9.96666096115e-07
9.96821232161e-07
9.96830634575e-07
9.96528305511e-07
9.95855818919e-07
9.95360719137e-07
9.95211558088e-07
9.95103078083e-07
9.94998610028e-07
9.94532923962e-07
9.94262390315e-07
9.94692884768e-07
9.94540577298e-07
9.94908031401e-07
1.97495352816e-06
2.02492366055e-06
9.94282357895e-07
2.02801092481e-06
2.06827098908e-06
9.94221501398e-07
9.94200065854e-07
9.94030070104e-07
9.94452835041e-07
9.9370414207e-07
9.93595592032e-07
9.94223628719e-07
1.99794535947e-06
9.89496108861e-07
9.89790010324e-07
9.89297688048e-07
9.89389775317e-07
2.00008314966e-06
9.94370928082e-07
9.93909891052e-07
9.93797289817e-07
2.04424638974e-06
9.89060169859e-07
9.89283071295e-07
9.88910430798e-07
9.88965556371e-07
2.04666860514e-06
9.94234613408e-07
9.93509946481e-07
9.93402827092e-07
1.98426224346e-06
9.86119506266e-07
9.84969968836e-07
9.91897912394e-07
9.9003194942e-07
2.01068917745e-06
2.03354607902e-06
9.93713471533e-07
9.92469336499e-07
1.0003388795e-06
9.98347099822e-07
2.05634389443e-06
9.88075204193e-07
9.86572900793e-07
1.98795070007e-06
9.83769210188e-07
9.83599162723e-07
9.89667573585e-07
9.89302227128e-07
9.83673952631e-07
9.83859555582e-07
2.00684742371e-06
9.8950779839e-07
9.884619664e-07
9.95798591342e-07
9.94197405948e-07
2.0360095057e-06
9.89150946234e-07
9.83893481434e-07
9.83863264103e-07
9.8395383124e-07
9.83917327709e-07
9.89231940311e-07
9.88934035435e-07
9.83711361341e-07
9.8391464047e-07
9.8382812307e-07
9.83726287355e-07
9.88938110116e-07
2.05339442374e-06
9.97820380802e-07
9.96313340441e-07
1.97788232572e-06
1.32266381157e-06
1.31960790555e-06
1.36606831485e-06
1.36267408765e-06
2.02069614356e-06
2.02997004337e-06
1.37095162604e-06
1.36877395521e-06
1.40947524694e-06
1.40598035575e-06
2.06407986442e-06
1.34079688208e-06
1.33825885215e-06
1.99524386991e-06
2.00194549393e-06
1.34555318315e-06
1.34321772629e-06
1.38661311494e-06
1.38394459554e-06
2.0415334749e-06
2.04884506475e-06
1.39151266276e-06
1.38910723023e-06
1.32890124629e-06
1.3257748838e-06
1.98095244805e-06
1.05972110148e-06
1.06121584535e-06
9.85238427341e-07
9.91243614136e-07
1.08182691979e-06
1.08366204487e-06
1.07775577963e-06
1.07978940671e-06
9.90616308947e-07
2.01550946471e-06
1.35866011307e-06
1.3545950352e-06
1.37540031496e-06
1.37306428409e-06
2.03160895222e-06
9.93292162787e-07
1.08771303502e-06
1.08903294184e-06
1.0852308024e-06
1.08650287204e-06
9.92903388241e-07
9.99691533608e-07
1.10628024073e-06
1.1081483979e-06
1.10259250272e-06
1.10427029982e-06
9.98919186059e-07
2.05986032367e-06
1.4024873738e-06
1.39945414417e-06
1.99183442914e-06
1.33536312289e-06
1.33209445801e-06
1.35090415428e-06
1.34799300991e-06
2.00403991497e-06
9.95237075957e-07
1.09367669611e-06
1.09521480591e-06
1.09053679527e-06
1.09209794605e-06
9.94708552737e-07
2.03874627448e-06
1.38104180325e-06
1.37814446366e-06
1.39664639754e-06
1.39405081913e-06
2.05102331519e-06
9.97308476513e-07
1.09955479466e-06
1.10104424882e-06
1.09666054212e-06
1.09807789689e-06
9.96801842295e-07
9.85658985276e-07
1.06278161726e-06
1.06435590806e-06
9.89585845136e-07
9.83634827141e-07
9.8388533604e-07
1.06592356018e-06
1.06757453709e-06
9.87091465035e-07
9.87635648469e-07
1.0691467945e-06
1.07053023463e-06
9.83872397078e-07
9.83693441777e-07
9.89345939693e-07
1.07185526883e-06
1.07314277502e-06
9.88802794001e-07
9.89136638327e-07
1.07445320271e-06
1.07593548723e-06
9.83633074287e-07
9.86255554898e-07
9.8644308347e-07
9.86132814383e-07
9.86162883691e-07
9.83596477744e-07
9.83767718755e-07
9.86197795741e-07
9.86132092497e-07
9.8620303298e-07
9.86228624356e-07
9.83878231267e-07
9.83825772636e-07
9.86085277342e-07
9.86160720097e-07
9.85978089418e-07
9.86003803352e-07
9.83705767414e-07
9.83664249518e-07
9.85918688671e-07
9.85930332179e-07
9.86009029568e-07
9.85922979575e-07
9.83692869294e-07
9.8396003525e-07
9.8602277187e-07
9.86026147801e-07
9.85973547947e-07
9.86004681056e-07
9.83938826499e-07
9.83872201206e-07
9.85890009737e-07
9.85934215497e-07
9.85791567745e-07
9.85842932764e-07
9.83863322431e-07
9.83765509617e-07
9.85650601656e-07
9.85718423351e-07
9.85596903242e-07
9.85616069283e-07
9.83739332793e-07
9.83781395094e-07
9.85671417094e-07
9.85587223392e-07
9.85692985491e-07
9.8571204958e-07
9.83895322724e-07
9.97280547173e-07
9.9626061565e-07
9.96660153128e-07
9.9674625601e-07
9.96738314772e-07
9.9652177867e-07
9.9595753328e-07
9.95446200787e-07
9.95237813692e-07
9.95182903963e-07
9.95092866979e-07
9.95143712895e-07
9.95066777515e-07
9.95034009979e-07
9.94961454334e-07
9.94813378723e-07
9.94700455175e-07
9.94214890933e-07
9.94384963544e-07
9.94272357584e-07
9.94715769616e-07
9.94232044173e-07
9.9419182528e-07
9.94686083012e-07
2.07208601934e-06
2.10541094678e-06
9.94160103889e-07
9.93240739728e-07
9.930875159e-07
9.94195375406e-07
2.0897468666e-06
9.88561343735e-07
9.88787416099e-07
9.88232776596e-07
9.88518844947e-07
2.09223022472e-06
9.94174065407e-07
9.92907501628e-07
9.92732832325e-07
2.0808362783e-06
1.00288219593e-06
1.00098891721e-06
1.00970533277e-06
1.0078254838e-06
2.09832116152e-06
1.00475502182e-06
1.00343966036e-06
2.08296676261e-06
9.88575476777e-07
9.83790561799e-07
9.83899301136e-07
9.83911659936e-07
9.83820204997e-07
9.88636926196e-07
9.88261709131e-07
9.83859088719e-07
9.83781342253e-07
9.84073158042e-07
9.84009954115e-07
9.88408990903e-07
2.09710269649e-06
1.00733528596e-06
1.00557415359e-06
2.07569181843e-06
1.41625185867e-06
1.41284831291e-06
1.45084711249e-06
1.44822991968e-06
2.10169627156e-06
1.4301711472e-06
1.42816471851e-06
2.08729470122e-06
2.09408577437e-06
1.43535786378e-06
1.43288284936e-06
1.42248720153e-06
1.41967400174e-06
2.07860307411e-06
1.00225182292e-06
1.11364118566e-06
1.11533070887e-06
1.1099645518e-06
1.11177400376e-06
1.00162290648e-06
1.00905285213e-06
1.13128088017e-06
1.1329775252e-06
1.12787161361e-06
1.12950034095e-06
1.0083972485e-06
2.09956333982e-06
1.44541532056e-06
1.44267873426e-06
1.00425238569e-06
1.11885487723e-06
1.12018865678e-06
1.11666416809e-06
1.11775093236e-06
1.00384893308e-06
2.08522785674e-06
1.4264482641e-06
1.424680583e-06
1.44006022523e-06
1.4376708703e-06
2.09554523487e-06
1.00687766726e-06
1.12515090987e-06
1.12644019208e-06
1.12206949826e-06
1.123792578e-06
1.00633065188e-06
9.83901883178e-07
9.85591309081e-07
9.85645449118e-07
9.85412081157e-07
9.85511721207e-07
9.83876150563e-07
9.83770079226e-07
9.85338840433e-07
9.85365421215e-07
9.85425642065e-07
9.85337026132e-07
9.83779853419e-07
9.84102092096e-07
9.8545834989e-07
9.85479764085e-07
9.85319178143e-07
9.85399421721e-07
9.84077868359e-07
9.83814896039e-07
9.85144515066e-07
9.85197529731e-07
9.85059677849e-07
9.85100589558e-07
9.83797566817e-07
9.99129544051e-07
9.96550198401e-07
9.96768542419e-07
9.96716048728e-07
9.96720838056e-07
9.96568568775e-07
9.96530576378e-07
9.96157702085e-07
9.96044864078e-07
9.95618143862e-07
9.95515939206e-07
9.95253417535e-07
9.95089264809e-07
9.95019983632e-07
9.95004821124e-07
9.94922207053e-07
9.94674473724e-07
9.94148612012e-07
9.94156507999e-07
9.94122173372e-07
9.94655568832e-07
2.10941273381e-06
2.14356554134e-06
9.9410779036e-07
9.92557294311e-07
9.92352713808e-07
9.94131013893e-07
2.12629851828e-06
9.87966551004e-07
9.88219139714e-07
9.87807590575e-07
9.8788565591e-07
2.12838201285e-06
9.94109257343e-07
9.92154458652e-07
9.91914489315e-07
2.1189112117e-06
1.01240771337e-06
1.01030074291e-06
1.01973501213e-06
1.01808808916e-06
2.13946495335e-06
1.01514367032e-06
1.01321621978e-06
2.12176470531e-06
9.88135719678e-07
9.84196850888e-07
9.8398750038e-07
9.83780300784e-07
9.84180748521e-07
9.88219357667e-07
9.87880147453e-07
9.84062095854e-07
9.84251615311e-07
9.83963187852e-07
9.8400146709e-07
9.87882124833e-07
2.13641799758e-06
1.01738846981e-06
1.0156168607e-06
2.11332524586e-06
1.45572331008e-06
1.45326506305e-06
1.48913020231e-06
1.48736021502e-06
2.14249613396e-06
1.47218747459e-06
1.46992027376e-06
2.12510571852e-06
2.13094135585e-06
1.47607292127e-06
1.47418797882e-06
1.46096238105e-06
1.45832517516e-06
2.1164731085e-06
1.01158345954e-06
1.13760546096e-06
1.13938243235e-06
1.13450925016e-06
1.13595137403e-06
1.01086846259e-06
1.01916402091e-06
1.15604408942e-06
1.15725423642e-06
1.15364223296e-06
1.15493339458e-06
1.01866833905e-06
2.14119671578e-06
1.48555548181e-06
1.48348804131e-06
1.01460655553e-06
1.14478190573e-06
1.14614204295e-06
1.14131874378e-06
1.14315926727e-06
1.01394397223e-06
2.12401334724e-06
1.46724816035e-06
1.46408459868e-06
1.48052157909e-06
1.47804945581e-06
2.13338416265e-06
1.01673906952e-06
1.150226117e-06
1.15187858913e-06
1.14738671738e-06
1.14872355841e-06
1.01614467528e-06
9.83852479332e-07
9.85109162819e-07
9.85044977e-07
9.85237993515e-07
9.85234521431e-07
9.84074725827e-07
9.84193896373e-07
9.85185644449e-07
9.85223432541e-07
9.84944100837e-07
9.85072775601e-07
9.84095238168e-07
9.8397491557e-07
9.84881033856e-07
9.84896023325e-07
9.84859287118e-07
9.84867299923e-07
9.83987300808e-07
9.84150163287e-07
9.85004717997e-07
9.84951129454e-07
9.84980844471e-07
9.85009076089e-07
9.84180485149e-07
9.96956664546e-07
9.96703367002e-07
1.00394653919e-06
1.00137236047e-06
9.97954958949e-07
9.97607632274e-07
1.00975289106e-06
1.03868884366e-06
9.96547608249e-07
9.96801524977e-07
9.96610671478e-07
9.96235543018e-07
9.95743621035e-07
9.95374840124e-07
9.95138558401e-07
9.9504394722e-07
9.94995526596e-07
9.94984596741e-07
9.94925399e-07
9.94636016521e-07
9.9409921245e-07
9.94098040834e-07
9.9410933746e-07
9.9463763609e-07
2.14475083416e-06
2.17729506166e-06
9.94143698427e-07
9.91669327132e-07
9.91408212299e-07
9.94121825537e-07
2.1579756175e-06
9.87490407918e-07
9.875896244e-07
9.86755542695e-07
9.87500682738e-07
2.15903935346e-06
9.94117263385e-07
9.91108027472e-07
9.90746993786e-07
2.15045835719e-06
1.02332335932e-06
1.0204731344e-06
1.03104296517e-06
1.02848146481e-06
2.1694439659e-06
1.02474931617e-06
1.02405071309e-06
2.15314404006e-06
9.8736476773e-07
9.83965191489e-07
9.83709529052e-07
9.84326569479e-07
9.8422523128e-07
9.87382323474e-07
9.86868274464e-07
9.84477256683e-07
9.83843874071e-07
9.83924939462e-07
9.84528279482e-07
9.87275267472e-07
2.16573011834e-06
1.02766538262e-06
1.02515429313e-06
2.14577388786e-06
1.49373937309e-06
1.49121873478e-06
1.52887014691e-06
1.52589729192e-06
2.17577160972e-06
1.50650375513e-06
1.50508295388e-06
2.15637325413e-06
2.16025320683e-06
1.51075546944e-06
1.50839645419e-06
1.49968857706e-06
1.49666435634e-06
2.14742562923e-06
1.02235752342e-06
1.16260534769e-06
1.16486685323e-06
1.15872977258e-06
1.16053663466e-06
1.02135639929e-06
1.0301819212e-06
1.18157419213e-06
1.183762286e-06
1.17760153893e-06
1.17953762915e-06
1.02930646392e-06
2.17306313397e-06
1.52261685998e-06
1.51939445357e-06
1.02454953859e-06
1.16842133712e-06
1.16914268789e-06
1.16660463667e-06
1.1676438827e-06
1.02430727253e-06
2.15467378022e-06
1.50364301982e-06
1.50201814072e-06
1.51639327528e-06
1.51344526937e-06
2.16233147592e-06
1.02686694504e-06
1.17393320963e-06
1.17573136638e-06
1.17029446702e-06
1.17212770077e-06
1.02603518617e-06
9.84378629587e-07
9.84875088491e-07
9.84941220414e-07
9.84517038145e-07
9.84728601546e-07
9.84375214815e-07
9.83776701879e-07
9.84334378292e-07
9.84383307545e-07
9.84466961861e-07
9.84340701865e-07
9.83707254145e-07
9.84323805099e-07
9.84931393963e-07
9.84840314571e-07
9.84833329161e-07
9.84936284281e-07
9.84476612505e-07
9.84201215126e-07
9.84204892076e-07
9.84548590441e-07
9.83918674708e-07
9.84021400505e-07
9.84009923195e-07
9.96904764988e-07
9.96881028172e-07
1.05040408317e-06
1.04526544059e-06
9.96683247482e-07
9.96621208024e-07
1.0478511124e-06
9.957530746e-07
9.95680908347e-07
9.96558275789e-07
9.96755011665e-07
1.03766304782e-06
9.96947276215e-07
9.96727007192e-07
1.04438095898e-06
9.96677675075e-07
9.96781436307e-07