/*--------------------------------*- C++ -*----------------------------------*\
  =========                 |
  \\      /  F ield         | OpenFOAM: The Open Source CFD Toolbox
   \\    /   O peration     | Website:  https://openfoam.org
    \\  /    A nd           | Version:  8
     \\/     M anipulation  |
\*---------------------------------------------------------------------------*/
FoamFile
{
    version     2.0;
    format      ascii;
    class       volScalarField;
    location    "1.2e-05";
    object      N2;
}
// * * * * * * * * * * * * * * * * * * * * * * * * * * * * * * * * * * * * * //

dimensions      [0 0 0 0 0 0 0];

internalField   nonuniform List<scalar> 
49986
(
0
0
0
0
0
0
4.4408920985e-16
0
8.881784197e-15
0
0
7.97406585207e-12
0
9.04924912781e-10
3.64713281797e-09
1.83042803137e-10
0.0754372967459
0.304744394507
0
0
0
1.15220755159e-09
2.37546904369e-09
2.60933019636e-09
1.77153203218e-09
0.241146558967
3.86260090413e-06
0
0.000392414581634
1.02943761033e-05
0.248695283779
3.47949691282e-09
0
4.18749398863e-05
0.17402347754
0
8.95969372132e-05
0
0
0.286135094254
1.41939019427e-08
0
0
0
0
0
0
0
0.198022397438
8.91159453009e-07
3.97190374772e-05
0
6.13285334139e-06
0.000114340321705
0
0.000252862113363
0
0
0
0
0.000139973856366
0.273817643084
0
0
0
0
5.13447706574e-09
1.61886029023e-05
0
0
0
0
1.32978081554e-05
0.114960019525
0
0
0.0227690651103
0.0203262726781
0.299542808087
0
0
0.23072357731
1.27137262096e-06
3.17420094299e-05
4.61751457909e-05
9.6499238367e-05
0.000146558825332
0
0.255781861627
0.0051397939409
0.00168641738922
0
0
0
0
0
0.140765935223
0
0
0
0
0
0
0
0
0
0
0
0
0.290436654932
0.0172784666749
0.0148204838561
0
0
8.30830937382e-09
0
0
0
0
0
0
0.210236408365
0
0
0
0.000119395462079
7.24087330403e-05
0.00021904173828
0.000149035575153
0
4.12995962616e-05
8.74703939169e-07
0
4.93087640934e-05
9.87807042652e-06
0.000155193522377
0.0119442635556
0.00827296298823
0.266337857255
0
0
0
0
0
0
0
0
3.21065054532e-06
0
0
0
0
0
0
0
0
0
0
0
0
4.21884749358e-15
0
0
4.66515714947e-13
6.47175091295e-10
0
0
0
0
5.84664439085e-09
0.311141563749
0.39940092632
0
3.02371761152e-05
5.54843902101e-05
0
0.357072334137
0.00108832528063
0.000548077060988
0.00175104738259
0.00125457098654
0.363162395814
0
0.000110625456605
0.000161621859501
0.332364486869
0
0
0
0
0.384451033014
0
0
0.338840283093
0.000900809945492
0
0
0
0
0.00071390623413
0.00158549546109
0
0
0
0
0.00145256436237
0.379856325122
0
0
0.318305338435
0.0275440411124
0.0254180290551
0.072400422811
0.0684569939613
0.394827861556
0.0461131904478
0.0423249475307
0.351190704187
0.369493063415
0.0518250999985
0.0484060236838
0.0333972179046
0.0315159693696
0.325526890326
0
0
0
0
0
0
0
0
0
0
0
0
0.389635335443
0.0645063684728
0.0617804858999
0
0
0
0
0
0
0.345103363312
0.0398606907132
0.0364980504171
0.0591080367452
0.0559010497051
0.375180149545
0
0
0
0
0
0
0
2.22044604925e-16
0
0
0
0
1.3211653993e-14
0
0
1.10303877143e-10
8.8534363174e-09
4.82041262462e-09
0
0
0
0
0
2.46167553009e-09
0
0
0
0.404290110107
0.455287316699
0
0.457814287821
0.484091904163
3.55311631988e-05
0.00026526653748
0.000342074932083
0
0.000781466135202
0.00102058721958
0
0.431432117118
0.00223444198459
0.00188029056553
0.00220720872105
0.00227174980591
0.434707115067
0
0.000554282289298
0.00066801710819
0.47168638346
0.00158394398119
0.00213903192445
0.000103285234548
0.00140979692744
0.473042762377
1.38833975711e-05
0.00124799527943
0.00145884789278
0.416103589253
0
0
0
0
0.447423297078
0.464262877965
0
0
0
0
0.479247795139
0
0
0.419603065285
0.00211799026848
0
0
0
0
0.00204457825993
0.00224613893197
0
0
0
0
0.00226688675696
0.444961112754
0
0
0
0
0.466280602773
0.00184388188002
0
0
0
0
0.00192840792622
0.000533675586966
0
0
0
0
0.000908128445756
0.478125633838
0
0
0.409106543343
0.0807507704947
0.0765098606759
0.136023962623
0.131974174479
0.452757566015
0.460436705765
0.14446644757
0.14012801327
0.197615894242
0.193274148882
0.482075673021
0.103477100147
0.0995157750418
0.427785083682
0.43810034218
0.1116040896
0.107358470178
0.16749824879
0.164176353673
0.470404320188
0.474895919108
0.175159785507
0.171076573753
0.087851939219
0.0844706693363
0.41298502333
0
0
0
0
0
0
0
0
0
0
0
0
0.449887691269
0.127677616665
0.123752697576
0.151888260299
0.148254232009
0.462493006911
0
0
0
0
0
0
0
0.00445991022852
0.006041352351
0.00162557021931
0.00301795839296
0
0.480516260836
0.189659056408
0.186135288141
0
0
0
0
0
0
0.423779589741
0.0955739525643
0.0914597676454
0.120014665138
0.115878891795
0.441757494082
0
0
0
0
0
0
0
0
0
0
0
0
0.468619555882
0.160388835419
0.155937658415
0.182715763215
0.179176538464
0.476708350895
0
0
0.000389320495936
0
0
0
0
0
0
0
0
0
0
0
0
0
0
0
0
0
0
2.29816166097e-14
3.80806497446e-14
0
0
0
0
4.82648587763e-10
1.14631792947e-09
2.29658143613e-08
5.72671124965e-08
0
4.98692480112e-05
0
0
0
0.486585751598
0.505987984974
0.000145508904546
0.00165175867725
0.0017769614718
8.43642240387e-05
0.495904453217
0
0
0
0
0.497423225182
0.000115584788904
0.00193386840465
0.00227070389121
0.492100196393
0
0
0
0
0.503138328648
0
0
0.492861967764
0
0
0
0
0
0
0
0
0
0
0
0
0.502277234929
0
0
0.489326033478
0.208265302995
0.20267654265
0.259179472828
0.255732465154
0.50505448695
0.229442907407
0.22586086433
0.494753253965
0.499317880204
0.238019246834
0.233396031391
0.216437353157
0.212859496835
0.491086869239
0
0.0131289993332
0.0144219332826
0.00797043310182
0.0100314439744
0
0
0.0376537853662
0.039991309206
0.0334618813409
0.0354868004939
0
0.504049741764
0.252373728884
0.24928997665
0
0.0195765086627
0.0224221284367
0.0164294597175
0.0178690639503
0
0.493816322459
0.222655551106
0.219436085961
0.246258739504
0.242509827641
0.501044215785
0
0.0286048256536
0.0312942016116
0.0241508771723
0.0260772642623
0
0
0
0
0
0
0
0
0
0
0
0
0
0
0
0
0
0
0
0
0
0
0
0
0
0
2.10942374679e-15
1.44328993201e-15
0
0
0
0
0
0
5.55111512313e-16
9.99200722163e-15
9.63673585375e-14
0
0
3.03104419341e-09
1.32656010066e-07
0
0.000217902055192
0
0
0
0.506769374865
0.5167606077
0.000348300196797
0.00241991262441
0.00259416125861
0.00024531715969
0.512479670409
0
0
0
0
0.512922322225
0.00030523146176
0.00284945608649
0.00306043982113
0.508914856316
0
0
0
0
0.515285851855
0
0
0.509870720882
0
0
0
0
0
0
0
0
0
0
0
0
0.514532436711
0
0
0.507461907451
0.265360084303
0.262377002306
0.303816797121
0.301744177318
0.516429943076
0.283543941961
0.280695333498
0.51179807029
0.513324678624
0.288415749597
0.286021605792
0.271210602934
0.268181415038
0.508113001029
0
0.0467201265455
0.0490121004423
0.0423104789323
0.0445245045005
0
0
0.0745331748493
0.0765545676009
0.0698683305798
0.0722920184283
0
0.515955208103
0.299394767459
0.296627956491
0
0.0561301341865
0.0584706986445
0.0513577145052
0.0537557381203
0
0.510898050394
0.277637609765
0.274391910737
0.293761683649
0.290917963587
0.513831047641
0
0.0649613209562
0.0673930968096
0.0606491967435
0.0627364076842
0
0
0
0
0
0
0
0
0
0
0
0
0
0
0
0
0
0
0
0
0
0
0
0
0
0
0
1.11022302463e-15
0
0
0
1.52100554374e-14
2.01838545877e-13
0
0
7.67083307984e-09
2.48738779574e-07
0
0.000435725245628
0
0
0
0.517042763145
0.523399252886
0.0006542515752
0.00330769874445
0.0035249588958
0.000487219794493
0.520360356826
0
0
0
0
0.520563014642
0.000594175152353
0.0037756427988
0.0039667273545
0.518667970805
0
0
0
0
0.522243134271
0
0
0.519373401413
0
0
0
0
0
0
0
0
0
0
0
0
0.521756980068
0
0
0.5174095613
0.307736517927
0.305677857141
0.336954567747
0.335150162234
0.523047648589
0.321592958946
0.319896697157
0.520171946616
0.520846751529
0.324953916243
0.323206768199
0.312921973662
0.310137184365
0.517970063368
0
0.0829528272409
0.0855714008614
0.0784224828939
0.0805438129775
0
0
0.109982504492
0.112153226623
0.105436184009
0.107745640537
0
0.522687674398
0.333338360877
0.331266261669
0
0.0927375125904
0.0946768569742
0.0881965792184
0.0906092630985
0
0.519871192717
0.317998236201
0.315649474973
0.329098407902
0.326885514297
0.521253187473
0
0.100627098723
0.103012216049
0.0965335052895
0.0984299089334
0
0
0
0
0
0
0
0
0
0
0
0
0
0
0
0
0
0
0
0
0
0
0
0
0
0
0
0
0
0
4.16333634234e-14
2.92210700081e-13
0
0
1.54052883783e-08
3.63556793115e-07
0
0.00077933626039
0
0
0
0.523654970575
0.528087094014
0.00106894290306
0.00419429578983
0.00434266683088
0.000847722435265
0.525270816209
0
0
0
0
0.525510439813
0.000990107301712
0.0045356156709
0.00463310258185
0.524320289602
0
0
0.00165706752421
0
0.52709154158
0
0
0.524610172951
0
0
0
0
0
0
0
0
0
0
0
0
0.526680463767
0
0
0.523870705313
0.340142237336
0.338563770719
0.3610869563
0.359759348429
0.527782170798
0.349064771941
0.34775642464
0.525092663838
0.525830657286
0.352034264029
0.350467551373
0.343238902815
0.341614757476
0.524064247352
0
0.118149973603
0.120245958751
0.114213288181
0.116188503701
0
0.000631030826516
0.142999283793
0.14503498357
0.139049329172
0.141028011814
0
0.527461116684
0.358469786719
0.357047232561
0
0.126278916569
0.128177930894
0.122289754099
0.124342954965
0
0.524876629907
0.346387142657
0.344838682488
0.355455130793
0.353786381228
0.526260940079
0
0.134622600211
0.13687099732
0.130175308814
0.132260897132
0
0
0
0
0
0
0
0
0
0
0
0
0
0
0
0
0
0
0
0
0
0
0
0
0
0
0
0
0
1.66533453694e-15
6.83897383169e-14
4.68625138694e-13
0
0
3.1814244128e-08
5.09440050589e-07
0
0.00122923238391
0.00176576631292
0
0
0
0.528406577037
0.534105205613
0.00158695414593
0.534459666562
0.539697623458
0.00216809805987
0.00476840512833
0.00484996977781
0.00131573626904
0.00491245926896
0.00486973049082
0.00186962752162
0.530849458765
0
0
0
0
0.531123608075
0.00149201942111
0.00492604832237
0.00493153731444
0.536579191156
0
0
0
0
0.536860765863
0.00205403119367
0.00477484864936
0.00466774067681
0.529446965245
0.00536956768736
0.00253615749352
0.0185923389845
0.0145504574663
0.532453622816
0.535163872409
0.0227645025284
0.0197489814601
0.0375182723639
0.0335938369996
0.538150696717
0.00929840992932
0.00636818072557
0.52980391346
0
0
0
0
0
0
0.531959695108
0.0132711850676
0.010257480877
0.0276065128588
0.0239113794065
0.535500825132
0
0
0
0
0
0
0
0
0
0
0
0
0.537745171257
0.0323463679229
0.0287992362895
0.528747340503
0.363924987248
0.362443385667
0.38223417366
0.38086087313
0.533621393786
0.534711590002
0.384101453825
0.38325863605
0.397631774796
0.396514842204
0.539150363012
0.371784687833
0.370610199423
0.530528035722
0.531365054721
0.373901107014
0.372848734412
0.389866266931
0.388890142762
0.536260787188
0.537121775835
0.391548421343
0.390711473837
0.366779428668
0.365333219943
0.529093557066
0.147081232671
0.149238612501
0.00330356724897
0.0173110498636
0.175125662244
0.177258114694
0.170293306122
0.172741982321
0.0159183369708
0.533043447987
0.379267857669
0.377570536833
0.385691310788
0.384820816015
0.534919841457
0.0217377981533
0.181826576149
0.183335741192
0.178990989222
0.180473095704
0.0207653242401
0.03617832775
0.201951115046
0.203803567227
0.198424737331
0.200131970271
0.034794541356
0.538616737609
0.395394180783
0.394333790695
0.530176907421
0.369440650738
0.368114037427
0.376099416068
0.374896675396
0.531614067266
0.0263719244168
0.188652438406
0.190370599501
0.185012511546
0.186836863516
0.0251389127612
0.53588327011
0.387820952174
0.386691520027
0.393345494958
0.392416397227
0.537415916924
0.0311451830958
0.195127273603
0.196763279724
0.191964255492
0.19352683381
0.0299567576406
0.00427613889699
0.151352252319
0.15349802163
0
0
0
0.155505938739
0.157459933191
0.0073648549093
0.00831310926152
0.159251283561
0.161074893574
0
0
0
0.162821365871
0.164544891334
0.0112430306651
0.012321506515
0.166223178571
0.168103250161
0
0
0
0
0
0
0
0
0
0
0
0
0
0
0
0
0
0
0
0
0
0
0
0
0
0
0
0
0
0
0
0
0
0
0
0
0
0
0
0
0
0
0
0
0
0
0
0
0
0
0
0
2.88657986403e-15
1.17461596005e-13
1.00430774808e-12
0
0
0
0
5.1649787447e-08
9.55721795037e-08
6.53908832415e-07
6.30441799987e-07
0
0
0.00235481510793
0
0
0
0
0
0
0.540244720821
0.545517562783
0.00277384084084
0.00448229177374
0.00431202405271
0.00246479873768
0.542838342496
0
0
0
0
0.543129901451
0.00265681200307
0.00407173328092
0.00380310368838
0.541709810342
0.0433436361751
0.0389885636352
0.0580020103929
0.0537652031141
0.544374330197
0.0475174156367
0.0446682031295
0.542044102755
0
0
0
0
0
0
0
0
0
0
0
0
0.54403606333
0.0524510843439
0.0487069244862
0.540790985461
0.399936117745
0.398775797364
0.410804313368
0.409895124696
0.545014344884
0.40446345103
0.403902618941
0.54258066771
0.54343036424
0.405767488298
0.405094863738
0.402055932623
0.401063130639
0.541294937248
0.0418895237201
0.209617109992
0.21140620603
0.205736426509
0.207705344106
0.0404365840131
0.0565684520148
0.226641300261
0.228298851693
0.223259220771
0.224905166068
0.0551274083256
0.544659874849
0.408886174874
0.407973136846
0.0466021244457
0.215054612522
0.216217741863
0.21287308854
0.21400907955
0.0456745546831
0.542337597063
0.403384025412
0.40282178364
0.407153065828
0.406439461457
0.543706514402
0.0511946523016
0.220362378022
0.221757347619
0.217558160923
0.218957318092
0.0499518768377
0
0
0
0
0
0
0
0
0
0
0
0
0
0
0
0
0
0
0
0
0
0
0
0
0
0
0
0
0
0
3.77475828373e-15
4.32986979604e-15
2.45359288442e-13
5.73208147614e-13
1.04438679926e-12
3.96127575186e-13
0
0
1.34197230106e-07
3.10185150898e-07
0
0.00293071768424
0
4.83984035016e-06
0
0.546003800175
0.551171699886
0.00336136697191
0.003527772109
0.00317812361547
0.00307556555551
0.548691643007
0
0
0
0
0.548997701424
0.00322775731946
0.00285694940222
0.00244751144756
0.547050125724
0.0626561324837
0.0592935858773
0.0775684615993
0.0742694264815
0.550373925442
0.0685645990141
0.0641222417894
0.547533159817
0
0
0
0
0
0
0
0
0
0
0
0
0.550051202825
0.0729926828247
0.0696159463637
0.546368045715
0.412110050684
0.411553053815
0.420823097901
0.42031503771
0.550935145918
0.416642221323
0.415915217423
0.548321746754
0.549419725949
0.417837286327
0.417255539589
0.413236190903
0.412628508645
0.546723697107
0.0615012302894
0.231973000634
0.233253062127
0.229706514165
0.230892919055
0.060429564272
0.0764775694239
0.247299997966
0.248359072128
0.245362169693
0.246353185273
0.0754076579791
0.550649657946
0.419921141539
0.41946467459
0.0672902784076
0.238258466842
0.239605823203
0.234849758881
0.23661662078
0.0656951146217
0.548067897518
0.415028008043
0.414079202663
0.418983245688
0.418414549005
0.549767774122
0.0717581083763
0.242994632152
0.244225004555
0.240700053517
0.241815521566
0.0706703876823
0
0
0
0
0
0
0
0
0
0
0
0
0
0
0
0
0
0
0
0
0
0
0
0
0
0
0
0
0
0
0
0
0
0
0
0
6.99440505514e-15
1.09501296919e-12
0
0
5.12107245498e-10
2.60122880791e-07
0
0
0.00348599273588
4.13315022887e-05
7.88577300891e-05
0
0.551456424689
0.557254972142
0.00386844195549
0.00206462083581
0.00153745539622
0.00362049036438
0.553680828806
0
0
0
0
0.553869631534
0.00373590305408
0.00120581838729
0.000539426624295
0.552586657189
0.0835629662688
0.0788999036309
0.0988377433436
0.0937639848163
0.55545913494
0.0876284234617
0.0852741813669
0.553075730569
0
0
0
0
0
0
0
0
0
0
0
0
0.554852422312
0.0921141715935
0.0882949153368
0.55174817497
0.422195450568
0.421404807993
0.431341293696
0.430567740828
0.556764122569
0.425553564628
0.425319431546
0.553429131592
0.554028793655
0.426367301189
0.425885600094
0.423907015971
0.423066887458
0.552053630503
0.0819854915793
0.252888889393
0.2544704332
0.249651990985
0.251221729679
0.0804060416317
0.0971837884825
0.267271878939
0.268784644053
0.264073434943
0.265695544364
0.0954547138738
0.556127464577
0.429682917509
0.428746439139
0.0868613439392
0.257497389605
0.258078610863
0.255802124475
0.256783619888
0.0862224066089
0.553284084532
0.42504418083
0.424583714129
0.427852863942
0.427043185052
0.554319140116
0.0906619517634
0.261019019277
0.262497116367
0.258792453075
0.259768305084
0.0893035865604
0
0
0
0
0
0
0
0
0
0
0
0
0
0
0
0
0
0
0
0
0
0
0
0
0
0
0
0
0
0
0
0
0
0
0
0
0
0
0
0
0
0
0
0
0
0
0
0
0
0
0
0
0
0
0
0
0
0
0
0
0
0
0
0
0
0
0
0
0
0
0
0
0
0
0
0
0
0
0
0
0
0
0
0
0
0
0
0
0
0
0
0
0
0
0
0
0
0
0
0
0
0
0
0
0
0
0
0
0
0
0
0
0
0
0
0
0
0
0
0
0
0
0
0
0
0
0
0
0
0
0
0
0
0
0
0
0
0
0
0
0
0
0
0
0
0
0
0
0
0
0
0
0
0
0
0
0
0
0
0
0
0
0
0
0
0
0
0
0
0
0
0
0
0
0
0
0
0
0
0
0
0
0
0
0
0
0
0
0
0
0
0
0
0
0
0
2.03170813506e-14
2.39697151017e-12
0
0
2.23030760527e-09
3.21684656246e-07
0
0
0.00393765330551
0.000133965634101
0.000162193504512
0
0.557467926307
0.561920213972
0.00429216763162
0.000137487428572
0
0.00408138002994
0.559028830626
0
0
0
0
0.559181980409
0.00419225538599
0
0
0.558031428495
0.103920461752
0.100364130817
0.118161131658
0.114754727334
0.560533609764
0.106820396358
0.104716490823
0.558312089859
0
0
0.00107873126056
0
0
0
0
0.00469378993501
0.00695635537259
0.00201171132428
0.00408373046467
0
0.560232581116
0.113213033867
0.107954445299
0.557576776333
0.432460904549
0.431963272651
0.439315309986
0.438859502258
0.561644645562
0.43423646835
0.433956398302
0.558817254861
0.559392663065
0.435305591649
0.434659952474
0.433212214903
0.432867894202
0.557761380866
0.103024757991
0.272446515185
0.27323336079
0.27018006695
0.271440672103
0.101811769432
0.28220862962
0.283331522567
0.116056454445
0.560952252982
0.438328581576
0.437690764086
0.106203769283
0.27476485079
0.275398055417
0.273811220665
0.274232465577
0.105354508502
0.558580685678
0.433732286581
0.433504135698
0.436925181284
0.436100565698
0.559804043563
0.111503602412
0.279282997462
0.280821376195
0.276144523194
0.277546010921
0.109718039633
0.117010863246
0.284316885785
0.285163177419
0
0
0
0
0
0
0
0
0
0
0
0
0
0
0
0
0
0
0
0
0
0.000227902033806
0
0
0
0
0
0
0
0
0
0
0
0
0
0
0
0
0
0
0
0
0
0
0.000610519372295
0
0
0
0
0
0
0
0
0
0
0
0
0
0
0
0
0
0
0
0
0
0
0
0
0
0
0
0
0
0
0
0
0
0
0
0
0
0
0
0
0
0
0.00273039322897
0
0
0
0
0
0
0
0
0
0
0
0
0
0
0
0
0
0
0
0.00323957245271
0.00530658686269
0
0
0
0
0.00617288818879
0
0
0
0
6.45039577307e-14
3.25217630603e-12
0
0
4.3536630967e-09
3.98202391283e-07
0
0
0.00439199670393
0.000229657998365
0.000276386994799
0
0.562410633807
0.56711563279
0.00461489056716
0.564740794063
0
0
0
0
0.565110943643
0.00457339397642
0
0
0.563495233897
0.122990754702
0.119169917342
0.137805269228
0.134674350958
0.566347230382
0.128586941146
0.124553980947
0.563872758808
0
0.0171135778487
0.0195453464058
0.566125822485
0.13322335194
0.129759812126
0.562717616244
0.440286150953
0.439765353584
0.447593247056
0.447174812777
0.566916850656
0.444000357137
0.443474989175
0.564356807767
0.565486942539
0.444828198989
0.444362375715
0.441596904846
0.440899664859
0.563157983706
0.136656204115
0.300234294085
0.300999433347
0.566646412448
0.446782195222
0.446393462181
0.564109984791
0.442908859611
0.442297201212
0.445910726795
0.445419089562
0.565875123831
0.0137295136389
0.0164724680808
0
0.132193081751
0.29681085819
0.297680260748
0.29492252946
0.295821315046
0.130937417588
0.29857907631
0.299347575911
0.136026607058
0
0
0.00449033671229
0.00751197721785
0.00947444959226
0
0.121495364142
0.288044428787
0.289308552461
0.286026562109
0.28695385652
0.120267164727
0
0.0104732155794
0.0130627895766
0.290639457617
0.291890975221
0.12606969796
0.127392668757
0.292971255843
0.293986718662
0
0
0
0
0
0
0
0
0
0
0
0
0
0
0
0
0
0
0
0
0
0
0
0
0
0
0
0
0
0
0
0
0
1.11022302463e-16
0
0
0
0
0
0
0
0
0
0
0
0
0
0
0
0
0
0
0
2.22044604925e-16
0
0
0
0
0
0
0
0
0
0
0
0
0
0
0
0
0
0
0
0
0
0
0
0
0
0
0
0
0
0
0
0
0
0
0
0
0.0080496844
0
0
0
0
0.0084987942994
0.0114234082078
0
0
0
0
0.0122661986104
0.0146924681413
0
0
0
0
0.0158232163343
0.0180945145601
0
0
0
0
0.0188850876673
0
0
0
0
1.09023901018e-13
5.72064617899e-12
0
0
9.78902503501e-09
1.45192354806e-08
5.9649134676e-07
6.76590312221e-07
0
0
0
0
0.00468022770227
0.00461065020099
0.000367726132121
0.000435790677669
0
0.000542724515365
0.000619813440891
0
0.567299994816
0.572280940457
0.004716120589
0.572417032092
0.575147900005
0.00431733462527
0
0
0.00470046736003
0
0
0.00446254892125
0.570239290627
0
0
0
0
0.570639650624
0.00471665969389
0
0
0.573779090863
0
0
0
0
0.573985003165
0.00438681383765
0
0
0.568461280654
0.142179770793
0.138596494297
0.157071633157
0.154277944464
0.571825579822
0.573086197576
0.160664079299
0.15782313561
0.173016641427
0.17026953809
0.5747472979
0.147448997559
0.143378167029
0.569036853036
0
0.0236805746258
0.0263294048246
0.0201357898313
0.0226297048592
0
0
0.031609233532
0.0336700062167
0.0271798054643
0.0306005210521
0
0.57155862218
0.153065274612
0.14886368465
0.164740480712
0.161747622859
0.573212634084
0
0.0377630918573
0.0400387851174
0.0344878194645
0.0369354937479
0
0
0.0442203191906
0.0463306877468
0.0409455720668
0.0434065988561
0
0.574539902737
0.169149495323
0.165785378768
0.56755322977
0.448446110121
0.447933484676
0.456268227559
0.455986394801
0.572139500756
0.572651492684
0.456980163451
0.4566016399
0.461682400018
0.461519498428
0.575009685682
0.452185663046
0.45142916737
0.56982133635
0.571000313347
0.453669213091
0.452928974413
0.458923917976
0.458556954837
0.573552408884
0.574171849512
0.459837347843
0.459387176246
0.44950193325
0.448988537119
0.568022588865
0.140967971612
0.303703918629
0.304606108787
0.301882773568
0.302782916075
0.139663420177
0.156166333781
0.316048031291
0.31660868906
0.314572480724
0.315410327078
0.155286392863
0.572003672425
0.45569409697
0.455322893398
0.457716322607
0.457282944867
0.572898330957
0.159637390907
0.317983175077
0.318883444613
0.317059948337
0.317429141957
0.158658681275
0.172050398066
0.326746786574
0.327295814989
0.325693129523
0.326283534254
0.171149186208
0.574912236798
0.461269930444
0.460912648127
0.146006526619
0.307741980192
0.308920812382
0.305552763219
0.306622187683
0.14467102109
0.569461712034
0.450704076015
0.450056682518
0.454878810433
0.454320347835
0.571273737097
0.151652864215
0.312512319608
0.313552785081
0.310094190923
0.311338656774
0.150342305752
0.163694144228
0.321027343129
0.32181042489
0.319617055895
0.32022361636
0.162698946305
0.573346102464
0.458267926312
0.458048386243
0.460579697125
0.460286245624
0.574319338761
0.168016831342
0.324062466619
0.324780591538
0.322567648076
0.323332364145
0.166853754154
0
0
0
0
0
0
0
0
8.881784197e-16
0
0
0
7.77156117238e-16
0
0
1.11022302463e-16
0
0
0
0
1.11022302463e-16
0
0
0
0
0
0
0
0
0
2.22044604925e-16
0
0
0
0
0
0
0
0
7.77156117238e-16
0
0
0
0
7.77156117238e-16
0
0
0
0
0
2.22044604925e-16
0
0
0
0
0
0
0
0
0
0
0
0
3.33066907388e-16
0
0
0
0
0
0
0
0
0
0
0
0
0
0
0
0
0
0
0
5.55111512313e-16
0
0
0
0
0
0
0.0209870503163
0
0
0
0
0.0217685201391
0.0243747413824
0
0
0
0
0.0251342342085
0.0283878945391
0
0
0
0
0.0292482792342
0.0321899019707
0
0
0
0
0.0327424857914
0.0354646157255
0
0
0
0
0.0361157110162
0.0385499031413
0
0
0
0
0.0392142552734
0.0417266900536
0
0
0
0
0.0424199060636
0.0449860566285
0
0
0
0
0.0457077428048
0
0
0
0
0
0
0
0
0
0
0
0
0
0
0
0
0
0
0
0
0
0
0
0
0
0
0
0
0
0
0
0
0
0
0
0
0
0
0
0
0
2.43360886998e-13
3.17301740438e-13
6.68010091687e-12
9.09750053069e-12
0
0
0
0
2.49985032674e-08
7.84888358862e-07
0
0
0.0042322184531
0.000682571696093
0.000785018083084
0
0.575372420594
0.578740594077
0.00394328025936
0
0
0.0040778164196
0.576840752439
0
0
0
0
0.577019447572
0.00397876569391
0
0
0.576015190529
0.177084707271
0.174070123909
0.188284077874
0.18586267049
0.577955309591
0.180922027032
0.177894231229
0.57620850273
0
0.0499034136399
0.0524894822643
0.0469935170883
0.0490830746938
0
0
0.0557224446736
0.0583277457711
0.0534218544633
0.0553073378716
0
0.577756123456
0.185026301702
0.181965515164
0.575601290565
0.462340658536
0.461944942713
0.467819394474
0.467422301802
0.578481869524
0.464813566687
0.464546723664
0.576712605614
0.577286926915
0.465396655666
0.465045849599
0.463267310274
0.462775666217
0.575814745075
0.176084263387
0.329453927329
0.33023902076
0.327981318666
0.328688403868
0.175107114395
0.187456160883
0.337728004293
0.338425124278
0.33639959315
0.337061680947
0.186649458798
0.578174116357
0.466993904462
0.466577138359
0.180040735727
0.332410854253
0.333064633691
0.330973102145
0.331709024096
0.178716705719
0.576498525015
0.464170147494
0.463734493492
0.466172264171
0.465795003901
0.577526625203
0.184184512021
0.335065629456
0.335751996255
0.333696168243
0.33435358116
0.183175253001
0
0
0
0
0
0
0
0
0
0
0
0
0
0
0
0
0
0
0
0
0
0
0
0
0
0
0
0
0
0
0
0
0
0
0
0
0
0
0
0
0
0
0
0
0
0
0
0
0
0
0
0
0
0
0
0
0
0
0
0
0
0
0
0
0
0
0
0
0
0
0
0
0
0
0
0
0
0
0
0
0
0
0
0
0
0
0
0
0
0
0.0475043190074
0
0
0
0
0.0481572905248
0.0508836997172
0
0
0
0
0.0516013938611
0.0541965546229
0
0
0
0
0.0547591983188
0.0564164367422
0
0
0
0
0.0574084640143
0
0
0
0
0
0
0
0
0
0
0
0
0
0
0
0
0
0
0
0
0
0
0
0
0
0
0
0
0
0
0
0
0
0
0
0
0
0
0
0
0
0
0
5.86419801607e-13
1.08131281706e-11
0
0
3.34746677044e-08
9.83723189907e-07
0
0
0.00394478881479
0.000873299346298
0.000910977422654
0
0.57890226228
0.58291229016
0.00403820048489
0
0
0.00397199157303
0.58097710736
0
0
0
0
0.581235542598
0.00401025686935
0
0
0.579849268867
0.19271245758
0.189519663127
0.204352069805
0.200464202856
0.582219392781
0.196620447902
0.193962435681
0.580157931473
0
0.0630287316803
0.0647004053049
0.0594370354599
0.0621715414477
0
0
0.0688323662109
0.0718248892818
0.0653536538734
0.0679022500658
0
0.581982275772
0.199657282121
0.197349572087
0.579200367658
0.468572110075
0.468194402239
0.474651769567
0.474115036484
0.582678273562
0.471316566295
0.470875828845
0.580651368063
0.581447824691
0.4720060287
0.471680985598
0.469405212733
0.468976227267
0.57952138445
0.191353822363
0.340426682927
0.341136336963
0.339102543568
0.339756938824
0.190473256167
0.203141104759
0.34875101728
0.349599665826
0.347047767623
0.347869036803
0.201803338491
0.582451252685
0.47355363179
0.473059287581
0.19595328033
0.343477176284
0.344132428655
0.341912204118
0.342721116522
0.195067656187
0.580428720887
0.470376979675
0.469876288366
0.472654312938
0.4723041037
0.581720743123
0.198890462487
0.345767657077
0.346360693073
0.344697641019
0.345228393766
0.198159187063
0
0
0
0
0
0
0
0
0
0
0
0
0
0
0
0
0
0
0
0
0
0
0
0
0
0
0
0
0
0
0
0
0
0
0
0
0
0
0
0
0
0
0
0
0
0
0
0
0
0
0
0
0
0
0
0
0
0
0
0
0
0
0
0
0
0
0
0
0
0
0
0
0
0
0
0
0
0
0
0
0
0
0
0
0
0
0
0
0
0
0
0
0
0
0
0
0
0
0
0
0
0
0
0
0
0
0
0
0
0
0
0
0
0
0
0
0
0
0
0
0
0
0
0
0
0
0
0
0
0
0
0
0
0
0
0
0
0
0
0
0
0
0
0
0
0
0
0
0
0
0
0
0
0
0
0
0
0
0
0
0
0
0
0
0
0
0
0
0
0
0
0
0
0
0
0
0
0
0
0
0.0601996596197
0
0
0
0
0.0611102443532
0.0637121311795
0
0
0
0
0.0642564552396
0.0661596254352
0
0
0
0
0.0670616425387
0.0696606561038
0
0
0
0
0.07080915586
0
0
0
0
0
0
0
0
0
0
0
0
0
0
0
0
0
0
0
0
0
0
0
0
0
0
0
0
0
0
0
0
0
0
0
0
0
0
0
0
8.0790929502e-13
1.59672275402e-11
0
0
5.09350724931e-08
1.05690910912e-06
0
0
0.00404192840948
0.000981293647627
0.0010828664376
0
0.583224768422
0.585789134395
0.0039445170762
0
0
0.00402514553072
0.584376489027
0
0
0
0
0.584558026954
0.00397972613479
0
0
0.583727193555
0.207330639878
0.205395455882
0.215283135703
0.213860489367
0.585369910946
0.209423491036
0.207775757938
0.583871264925
0
0.0748284240025
0.0768798730535
0.0726799828527
0.0744834517198
0
0
0.0808343082293
0.0821383303658
0.0775290264137
0.0801191247198
0
0.585209070843
0.21304181158
0.210121335774
0.583456579139
0.475500143507
0.475257737429
0.479186957585
0.479106803114
0.585691822232
0.476625396667
0.476385448243
0.584213209279
0.584819308859
0.477383235183
0.476942484691
0.475892225447
0.475718137478
0.583600562894
0.20684141228
0.351271409785
0.351593436687
0.350335098467
0.350871784575
0.206201870272
0.214924684652
0.356669092426
0.35678790972
0.355953887764
0.356374454564
0.214454106566
0.585555520633
0.478901629339
0.47861562633
0.208749570117
0.352515045769
0.352832370681
0.351965335018
0.352152648839
0.208181014003
0.584048503976
0.476188214358
0.476003869973
0.478319672382
0.477880975116
0.585074488521
0.211918995391
0.354631891194
0.355404991078
0.353291606822
0.353744278636
0.210922943207
0
0
0
0
0
0
0
0
0
0
0
0
0
0
0
0
0
0
0
0
0
0
0
0
0
0
0
0
0
0
0
0
0
0
0
0
0
0
0
0
0
0
0
0
0
0
0
0
0
0
0
0
0
0
0
0
0
0
0
0
0
0
0
0
0
0
0
0
0
0
0
0
0
0
0
0
0
0
0
0
0
0
0
0
0
0
0
0
0
0
0.073383148052
0
0
0
0
0.0740016304566
0.075422688373
0
0
0
0
0.076180686331
0.0782230938365
0
0
0
0
0.0791323768909
0.0813926400295
0
0
0
0
0.0818473170661
0
0
0
0
0
0
0
0
0
0
0
0
0
0
0
0
0
0
0
0
0
0
0
0
0
0
0
0
0
0
0
0
0
0
0
0
0
0
0
0
1.03350661362e-12
1.90071292039e-11
0
0
6.39139923209e-08
1.09781825708e-06
0
0
0.00393404228147
0.00112560887691
0.00121489920124
0
0.585862963101
0.588757550135
0.00397825467204
0
0
0.00393483174496
0.587027081707
0
0
0
0
0.587319289055
0.00394957477507
0
0
0.586300708232
0.217139450068
0.215514334672
0.227917084208
0.225545764173
0.588310036873
0.220490297982
0.217940377913
0.586450247566
0
0.0854362627827
0.0881061800736
0.0826391089716
0.0847233236904
0
0
0.0922286898994
0.0952498248265
0.0889464787933
0.0913394347144
0
0.588113314463
0.224862566047
0.221682369593
0.585962364009
0.47948112762
0.47930293108
0.484793042785
0.48447328968
0.588669572323
0.481194062335
0.480738382744
0.586731099678
0.587635832063
0.482320362182
0.481758545769
0.480006902265
0.479699977109
0.586130361674
0.216487420448
0.357698931818
0.358129309185
0.357020431065
0.357302821309
0.215909489529
0.22705506538
0.365007787624
0.365530009029
0.36393971478
0.364465174156
0.226081385604
0.588538193772
0.484269305859
0.483893153288
0.219354676355
0.359382041745
0.360222266257
0.358468562051
0.358811974512
0.218520914783
0.586557693497
0.480499781496
0.48028797683
0.483349621463
0.482866589018
0.587905790381
0.224013417941
0.362639375016
0.363343596264
0.361027241457
0.361876330949
0.222927486037
0
0
0
0
0
0
0
0
0
0
0
0
0
0
0
0
0
0
0
0
0
0
0
0
0
0
0
0
0
0
0
0
0
0
0
0
0
0
0
0
0
0
0
0
0
0
0
0
0
0
0
0
0
0
0
0
0
0
0
0
0
0
0
0
0
0
0
0
0
0
0
0
0
0
0
0
0
0
0
0
0
0
0
0
0
0
0
0
0
0
0.0832405917739
0
0
0.00036902100924
6.26012852187e-05
0.0839468288836
0.086140975899
0.00111473875396
0.000705460295594
0.00194531796444
0.00152198129266
0.087088625043
0.0898290868011
0.0026127476651
0.00220300565839
0.00357077972387
0.00307084484041
0.0907373647116
0.0934091984608
0.0045460423029
0.00414086454092
0.00556317767395
0.00508294137179
0.0943970486738
0
0
0
0
0
0
0
0
0
0
0
0
0
0
0
0
0
0
0
0
0
0
0
0
0
0
0
0
0
0
0
0
0
0
0
0
0
0
0
0
1.32382993456e-12
2.22156737451e-11
0
0
9.94247993935e-08
1.19887952599e-06
1.21702899158e-06
0
0
0
0
0.0039955232888
0.00398171973199
0.00130054117054
0.00139253103393
0
0.00146872501719
0.00159665253546
0