/*--------------------------------*- C++ -*----------------------------------*\
  =========                 |
  \\      /  F ield         | OpenFOAM: The Open Source CFD Toolbox
   \\    /   O peration     | Website:  https://openfoam.org
    \\  /    A nd           | Version:  8
     \\/     M anipulation  |
\*---------------------------------------------------------------------------*/
FoamFile
{
    version     2.0;
    format      ascii;
    class       volScalarField;
    location    "1.2e-05";
    object      O2;
}
// * * * * * * * * * * * * * * * * * * * * * * * * * * * * * * * * * * * * * //

dimensions      [0 0 0 0 0 0 0];

internalField   nonuniform List<scalar> 
49986
(
1.15791015671e-54
7.47373606057e-51
1.73102774549e-47
1.12842205745e-43
6.82717128381e-40
2.58755291424e-36
1.16992042917e-32
8.5593681501e-29
9.97368130506e-26
7.23913763256e-23
0
5.68838220166e-22
5.97640262986e-19
1.2565701586e-18
0
0
0.00963363879825
0.0432288897615
0
0
3.43631048239e-12
7.11712316897e-16
0
7.60080783681e-19
1.17893428599e-17
0.032282508029
1.51787445198e-10
3.52822574578e-17
3.03240715233e-08
3.94787687849e-10
0.0335218700254
7.17031527179e-16
2.39916465819e-11
2.10150563007e-09
0.0220657963242
0
0
1.80227873113e-05
1.4326566368e-05
0.039584348361
1.05420160783e-15
2.47745990275e-14
0
9.53640962973e-14
0
0
5.51825448894e-06
4.1496628904e-07
0.0258425629165
0
2.80018333641e-08
2.87967473806e-07
0
0
0
2.48981292658e-08
5.15771100485e-07
5.73587278987e-07
3.02957102892e-07
3.84198526655e-07
1.56687709007e-08
0.0373328803557
1.30743819621e-05
8.12576102696e-06
1.66708454683e-15
4.82070069218e-15
7.87484958525e-16
1.30575490151e-09
8.80658804993e-14
7.40794259035e-14
0
4.43732340711e-13
1.07153288104e-09
0.0147741350223
0
0
0.00406902454888
0.00384149086537
0.0420937020876
0.00160652426616
0.00119668691974
0.0306088222379
1.751039618e-11
1.20556236177e-09
2.20719641493e-09
4.95113698202e-09
1.90131631523e-08
0
0.0344775517111
0.00224506651354
0.00181920481235
0
4.20887623978e-12
4.41062546092e-12
0
0
0.0182671139466
0
0
0
0
0
0
1.7053906256e-05
0.00020025005085
0.000222655822625
0.000169523108464
0.00018871431042
1.58158254922e-05
0.0402516191302
0.00352720968899
0.00327959425096
1.26490851895e-13
1.06832597338e-14
5.69022308302e-15
3.64400976056e-06
6.04252356567e-05
7.91969137107e-05
1.18843952341e-05
2.57527945196e-05
1.26493067881e-06
0.0273152762088
0.000567532755391
0.000354193029094
6.96458276553e-08
5.63256792991e-09
6.58982231154e-10
2.78347439886e-08
1.05244690871e-08
1.71423128827e-07
0
0
0
0
0
0
0.00299463491575
0.0025594659348
0.0363738629217
1.17159679529e-05
0.000146127508506
0.000159740818681
0.000121638282032
0.000141595076452
1.02366434293e-05
0
1.5333697856e-11
4.37517349274e-10
9.5405475597e-14
1.1687431861e-12
0
1.58574762697e-11
4.84834299642e-11
2.42787289963e-12
3.74568332087e-51
1.7817315846e-47
5.3689594964e-44
2.97166632542e-40
2.28666723422e-36
1.36556224079e-32
4.99200280061e-29
2.3728821036e-25
3.13675886444e-22
3.02464032791e-19
1.17931708958e-16
6.92317203895e-15
1.01043110948e-11
3.29155240526e-13
5.09437345915e-13
1.51437167883e-14
0.0445556551223
0.071967708959
2.32697776626e-11
1.18628440627e-09
1.28471903152e-09
1.88000100869e-11
0.0567550660736
4.01157127833e-08
3.55763392555e-08
4.75032230753e-08
4.20874333107e-08
0.0585772403814
2.18994739767e-11
1.34793030719e-09
1.39546386608e-09
0.0496849687813
2.22579568382e-05
1.87066025273e-05
4.26935094713e-05
3.58804539196e-05
0.0662156046367
2.75415345351e-05
2.30112870646e-05
0.0515060366071
3.90458282089e-08
7.26027951742e-07
8.27014829436e-07
6.35203358081e-07
6.94715760456e-07
3.74815353855e-08
4.59897863191e-08
1.09039574953e-06
1.16392388858e-06
8.66275019539e-07
9.93320302054e-07
4.33469975028e-08
0.0643965213293
3.41797054389e-05
2.86246854486e-05
0.0461474903438
0.00450890398829
0.00434218795696
0.0083953274399
0.00804487488812
0.0701853002507
0.00615300130696
0.00582099962068
0.0550433717711
0.0605939583738
0.00664415609087
0.00634375871333
0.00504925522716
0.0048852752834
0.0479691772545
2.07384639148e-05
0.000286725510972
0.000307796111509
0.000235058974591
0.000266269061639
1.99817262108e-05
4.04894703981e-05
0.000597070788634
0.000656989601116
0.000546239087129
0.00057088889151
3.84792731449e-05
0.0681981120501
0.00770369327691
0.00748156861692
2.62171197618e-05
0.000366628770453
0.000405747727589
0.000319021674095
0.000354022962681
2.4441890298e-05
0.0531968302617
0.00561772858755
0.00531883851967
0.00727075411731
0.00701306939901
0.0625872707774
3.18804002421e-05
0.000479189542316
0.000521332003747
0.000432051408936
0.000453097570532
3.067240028e-05
1.33706127353e-48
6.33285079844e-45
2.13142269714e-41
1.27495381686e-37
3.91337185369e-34
2.3258509951e-30
3.93635570721e-27
7.02601894349e-24
5.43119948827e-21
3.3333701839e-18
3.25947577129e-16
1.89831827681e-14
2.31543132676e-14
2.40269168027e-11
3.15326005669e-11
5.45005292769e-13
5.57176055697e-13
2.27991940669e-14
5.8545873359e-13
5.97609782747e-13
2.32879226975e-14
0.0739850032279
0.104467059682
2.97367075475e-11
0.106502482343
0.134545809778
3.79958019577e-11
1.47380558604e-09
1.52208221458e-09
2.63478582705e-11
1.78321848295e-09
1.95308199118e-09
3.34899145681e-11
0.0881115487358
5.79136520905e-08
5.05862137745e-08
7.5742781664e-08
6.38427508934e-08
0.0899581457739
2.80168531979e-11
1.65145685928e-09
1.72118560855e-09
0.11973919211
1.04924363623e-07
8.05468592277e-08
1.52919516505e-07
1.12370385939e-07
0.121526097472
3.56426789932e-11
2.12184370908e-09
2.33241173636e-09
0.0798624078007
5.48269846301e-05
4.55935556385e-05
0.000106056783027
9.13876030044e-05
0.0985575333411
0.112348376025
0.000137566391932
0.000110458477575
0.00024111600626
0.000211091629678
0.128856197703
6.96898004424e-05
5.71974336298e-05
0.0818164417815
5.58288359156e-08
1.52654754369e-06
1.64916368585e-06
1.23983420243e-06
1.33550118361e-06
5.23090145163e-08
7.09714912751e-08
2.45968804607e-06
2.65243512822e-06
1.97500330848e-06
2.20595423302e-06
6.81215732656e-08
0.0967358343183
8.61963512031e-05
7.32221428934e-05
0.000163781129132
0.000141180665322
0.114314511882
9.50196220944e-08
3.62368133208e-06
4.26969384402e-06
3.02439354964e-06
3.41887333308e-06
9.08533663113e-08
1.33351789675e-07
7.05626096413e-06
9.88986455138e-06
4.7765481009e-06
6.17423294497e-06
1.2517391114e-07
0.127345680546
0.000196247595553
0.000172551099412
0.0761874172423
0.00918733889764
0.00877438817044
0.0154440950475
0.0149208764214
0.102586569568
0.108688686924
0.0166203639439
0.0160365842121
0.0254554634318
0.0246573477059
0.132393226036
0.0114884997005
0.0110604117715
0.0860557610289
0.092051938549
0.0123990956665
0.0119195273731
0.0200716102867
0.0195957272476
0.118177995998
0.123496166702
0.0213785743503
0.0207029066194
0.00983613118517
0.0095324301636
0.07811046402
5.07900925418e-05
0.000764381282302
0.000806645095921
0.000690407270824
0.000728163394439
4.81441447858e-05
0.000102315838821
0.00139957457081
0.0014341207105
0.00125141341875
0.00133811082235
9.80329173637e-05
0.10046751797
0.0143526342459
0.0138679571003
0.0176625412301
0.0171813095172
0.110677610604
0.000125620565845
0.00166239407816
0.00172342806082
0.00150643217998
0.00158254599169
0.000117378465014
0.000230665588243
0.00270968706271
0.00281472759577
0.00253080956432
0.00261582281601
0.000220762287849
0.130473317478
0.0239536082635
0.0233620019431
6.38751274643e-05
0.000933523030278
0.00100754163994
0.000864027444116
0.000907614231794
6.14611614069e-05
0.0839628718131
0.0106388074628
0.0102002130373
0.0134161504223
0.0129343830357
0.0944470640718
8.28594754574e-05
0.00113887872725
0.00120318646634
0.00103034578283
0.00110892638403
7.62187363482e-05
0.000154507527528
0.00200073415867
0.00209054067539
0.00182826060729
0.00194787672371
0.000148735648009
0.116314010001
0.0189630356326
0.0182979228128
0.0227257843374
0.0221086404616
0.1255889239
0.000191251018948
0.00238103628877
0.00245591460396
0.00214071498611
0.00220501678724
0.000181601905
4.61978965346e-06
4.61913378004e-06
9.32339840813e-06
7.63560931013e-06
4.61835889924e-06
4.62681738025e-06
4.64398440468e-06
4.65045248606e-06
5.3393428095e-06
7.80271452414e-46
4.024943165e-42
1.40437756639e-38
4.17205856771e-35
1.8755795465e-31
4.60094504399e-28
3.82132825235e-25
2.47357002815e-24
2.72044116101e-22
6.85160500106e-22
4.87371110836e-20
6.97747874188e-20
6.21366571131e-18
7.63916548464e-18
4.05371954218e-16
4.08218554588e-16
2.3578656902e-14
3.92797505241e-11
6.24071165186e-13
6.55548541916e-13
2.40224821785e-14
0.137127834514
0.163552489458
4.93434821169e-11
2.54778584674e-09
2.70962580935e-09
4.28234411802e-11
0.149674995177
2.06534384124e-07
1.6499485426e-07
2.67953000329e-07
2.23678415434e-07
0.151603192199
4.46505137816e-11
3.06381809111e-09
4.07959140663e-09
0.14361724028
0.00028609534052
0.000254671465139
0.000483471229538
0.000437071318574
0.159050190935
0.000348712849666
0.000308956103101
0.144995566222
1.93009114745e-07
1.64573912897e-05
1.99546401826e-05
1.08133293187e-05
1.44995761132e-05
1.71324629478e-07
2.59069106889e-07
2.96502385978e-05
3.46130909776e-05
2.14292238559e-05
2.84352777881e-05
2.41801427816e-07
0.157547174151
0.000417105270841
0.000357172845843
0.139950394959
0.0276520844929
0.0264984033688
0.0402803222952
0.0393018831803
0.162091725006
0.03228523038
0.0314981502339
0.148017059728
0.153763625987
0.0344755775405
0.0332968849674
0.0293875441232
0.0286488419527
0.142091259899
0.000276942687206
0.00326797286586
0.00334936936387
0.00291998216263
0.00305436471228
0.000271526685389
0.000465628250287
0.00498099566442
0.00515098580592
0.00467625815271
0.00480896352052
0.000455831217026
0.160528721022
0.038299815167
0.0374677228548
0.000334242900784
0.00369565158558
0.00390112293859
0.00347867718283
0.00357644954789
0.000321247620216
0.146480571184
0.0307495715263
0.0300714818882
0.0366336439251
0.0356896983165
0.155849804664
0.000385362246617
0.00430879677868
0.00450520685086
0.00401024597977
0.00411587416898
0.000374434080886
5.25828496726e-06
5.14720808584e-06
2.65869918487e-05
3.08615844612e-05
5.41704633144e-06
5.32595285703e-06
5.69812258829e-06
5.52982090902e-06
3.28279559751e-05
2.37543507955e-05
5.0166590363e-06
4.92342469649e-06
4.87940365694e-06
4.8222465993e-06
1.88983364078e-05
1.76456992494e-05
4.79474138946e-06
4.71808948619e-06
4.68637010687e-06
4.64973735369e-06
1.3489239682e-05
1.17599693844e-05
4.6355083137e-06
4.62581765712e-06
7.98643341313e-44
3.73786730757e-40
1.08527356303e-38
1.20093939712e-36
2.48910911497e-35
3.46703090504e-33
2.83188702729e-32
6.14396069815e-30
3.12964521036e-29
7.50310137209e-27
3.12487910696e-26
1.0106701745e-23
1.09756360341e-21
8.53614440641e-20
8.54300100968e-18
4.13423952898e-16
2.42023363786e-14
6.2159808582e-11
7.03765510883e-13
8.37334652347e-13
2.47063221662e-14
0.164961614172
0.183291654598
8.42648100264e-11
4.38785159876e-09
5.05226884825e-09
6.78008817961e-11
0.174497050119
3.41631773231e-07
2.87892294365e-07
4.16548592552e-07
3.53447145599e-07
0.175600378378
7.41338497604e-11
5.48453614182e-09
6.3540448419e-09
0.168891991446
0.000576290907396
0.000504856243348
0.00090683376605
0.00080845945616
0.180162488333
0.000674736417816
0.000599383150684
0.170353073952
3.24055639996e-07
4.54395592869e-05
5.21361835184e-05
3.67658377061e-05
4.29459682866e-05
2.97688749345e-07
4.01922322667e-07
6.66423383398e-05
7.60074164597e-05
5.4950295271e-05
6.35600128998e-05
3.66864246975e-07
0.178921324458
0.000787334940262
0.000697623085614
0.166243165608
0.0421574464771
0.0412724869371
0.0561082670024
0.055269854978
0.182363635713
0.0481970983339
0.0472194021327
0.173258118218
0.176630338572
0.049971299183
0.0491371254019
0.0440102502376
0.0430777980556
0.167539808926
0.000553347335332
0.00569677151566
0.0058769482939
0.00534409957722
0.00550694228603
0.000516469160598
0.000886056502452
0.00827373977856
0.0084634686634
0.00779094423812
0.00802516916832
0.000831044973974
0.181311215996
0.0542413702502
0.0531628371328
0.000648698724842
0.00650765215926
0.0067051695965
0.006090570288
0.00628439929517
0.000623455978877
0.171828025526
0.046122972258
0.0450730643543
0.0519851267102
0.0509422586934
0.177736773301
0.000752522131495
0.00731757737933
0.00752988704238
0.00691987900655
0.00709908168771
0.000713034395269
3.84889556886e-05
5.95348900998e-06
5.85397348093e-06
6.21674267722e-06
6.06695254756e-06
4.09132766851e-05
4.72726797972e-05
6.58256197231e-06
6.40479563595e-06
6.92194388752e-06
6.78048706567e-06
4.99636031824e-05
5.74184026607e-05
7.24679029101e-06
7.11913282539e-06
7.76904920523e-06
7.5001617804e-06
6.03635522203e-05
6.95307459972e-05
8.30222154074e-06
8.0597525558e-06
8.7936718745e-06
8.54448862673e-06
7.30292194269e-05
3.69686741489e-42
1.41943757439e-40
2.14768334038e-37
3.35797248429e-34
2.14618316562e-31
1.90567243647e-28
1.06814523389e-25
1.62558681492e-23
1.34534448119e-21
9.49676896369e-20
8.82885828453e-18
4.26425331576e-16
2.56210009314e-14
9.37907085135e-11
9.35089928982e-13
1.01589642223e-12
2.62168473893e-14
0.184194082265
0.196716404676
1.22354650231e-10
6.9820212891e-09
7.95546142796e-09
1.04445429679e-10
0.190645489473
5.15864065629e-07
4.32957603906e-07
6.66740515266e-07
5.67080161636e-07
0.191401546337
1.10153360621e-10
8.54229183874e-09
9.71726665444e-09
0.187126572473
0.00104787169194
0.000927473319034
0.00157981697985
0.00142678586086
0.194557654675
0.00121568872468
0.00109473162824
0.188172948648
4.95543485125e-07
9.68923556817e-05
0.000108437823975
7.97477263507e-05
9.13774799309e-05
4.76587526971e-07
6.12855303238e-07
0.000134133297903
0.000151153520085
0.000113076990243
0.000128779720035
5.88427302822e-07
0.193762664212
0.00137546658936
0.0012473713458
0.18509957318
0.0578121759803
0.0569617041249
0.0723234001897
0.0713463121931
0.196024454792
0.0642009629667
0.0633776520987
0.189901667981
0.192154569285
0.0659207305731
0.0650744452676
0.0600730228357
0.0588903053041
0.186082029525
0.00101809523823
0.00914772488585
0.00943028147654
0.00867389761348
0.00887162720271
0.000980764194045
0.00152425945114
0.0125233694901
0.0127938996308
0.0118941732718
0.0121870183937
0.00144470580316
0.195282981592
0.0702761646501
0.0692295137289
0.00117495794779
0.010306352328
0.0105165694652
0.00976060221324
0.0100289021829
0.00113457942651
0.189087780899
0.0624033520081
0.0613469659201
0.0680393640743
0.0669598829818
0.192963645043
0.0013452663895
0.0112583615009
0.0115391158579
0.0107594135951
0.0109653299865
0.00126847238501
8.35465420086e-05
9.35202131709e-06
8.99846293309e-06
1.00827377332e-05
9.64390932986e-06
8.80518985893e-05
0.00010165662619
1.09193781688e-05
1.0442585728e-05
1.16421491773e-05
1.12039208679e-05
0.000105310287277
0.000118637885324
1.23527237637e-05
1.19654305414e-05
1.32495489114e-05
1.28094411837e-05
0.000124391424756
0.00013957304358
1.42641281748e-05
1.36987205269e-05
1.54052847573e-05
1.47574671926e-05
0.000144063410904
7.32081326146e-39
1.43623641178e-35
1.00456344221e-32
4.82513435166e-30
1.22666676988e-27
2.27642040837e-25
2.01752852304e-23
1.71839477379e-21
1.0153162403e-19
9.42694498823e-18
4.5629639372e-16
2.72316543395e-14
1.29491546751e-10
1.08002381644e-12
1.25893546085e-12
2.8055108876e-14
0.197391114751
0.205336481471
1.73744668903e-10
1.04349188117e-08
1.19406262114e-08
1.4502117542e-10
0.20122079994
8.27286562038e-07
6.88813556083e-07
1.11172933112e-06
9.26616939471e-07
0.201724952887
1.54161350209e-10
1.30228170857e-08
1.52643327194e-08
0.199120009528
0.00178544490943
0.00164364994009
0.00252960442703
0.00234960985635
0.203964092382
0.00202482807153
0.00183770596308
0.199714620686
7.89144939213e-07
0.00018394336816
0.000205351478485
0.000155374990594
0.00017652427537
7.57938390108e-07
1.05755808161e-06
0.000244226036912
0.000275650147988
0.000213755365835
0.00023649464734
9.6227720961e-07
0.203412009841
0.00228356642001
0.00207385954865
0.197973690726
0.074214391438
0.0733435633993
0.0878335000279
0.0869397573593
0.204915724167
0.079752428617
0.0789460941014
0.20076266175
0.202253446835
0.0816843541215
0.0807124197865
0.0760693881584
0.0751656484337
0.1985618687
0.00174980158074
0.0136790915833
0.0139536229521
0.0131115299531
0.0133640215578
0.00167964010571
0.00246116067478
0.017695599696
0.0180237068139
0.0170047181815
0.0173325313211
0.00241417233131
0.204464139639
0.0859815735758
0.0850131263057
0.00196638325187
0.0149092921062
0.0151777820844
0.0142973808756
0.0145821465064
0.00191315149327
0.200246299412
0.07801134817
0.0771070008893
0.0839161326131
0.0828514296058
0.202844766235
0.0022122888708
0.0162600164243
0.0166166787736
0.0155208885379
0.0158478233723
0.00210282817269
0.000165695686956
1.66529211706e-05
1.5969434006e-05
1.79035947261e-05
1.73300499457e-05
0.000171738544532
0.000188941472201
1.93461751739e-05
1.86941515771e-05
2.08385324055e-05
2.01743111261e-05
0.000197559788239
0.000221817903631
2.26709518245e-05
2.18300430202e-05
2.4537351954e-05
2.36840815368e-05
0.000230531743853
0.000255134804911
2.63088718559e-05
2.52817464546e-05
2.84392518208e-05
2.71156696958e-05
0.000265242069539
1.22334651495e-37
9.82657316904e-35
4.92826406493e-32
1.38943424142e-29
2.54493608234e-27
3.03235802288e-25
2.84091355597e-23
1.86493915441e-21
1.09604301699e-19
9.67370344328e-18
4.72506474004e-16
2.86334840867e-14
1.85120043112e-10
2.69394231343e-10
1.35069282094e-12
1.60769327939e-12
3.01478639735e-14
0.205758073065
0.211425348004
2.5191255474e-10
0.211733996127
0.215073625899
3.76510432767e-10
1.65318823828e-08
1.87022367159e-08
2.08890722007e-10
2.54595760007e-08
2.93010588987e-08
3.06416075452e-10
0.208650588832
1.41165624114e-06
1.16443771271e-06
1.88898822418e-06
1.54148087193e-06
0.208983186064
2.22526584342e-10
2.01749579204e-08
2.40379324441e-08
0.213405678641
2.53078633555e-06
2.00660145782e-06
3.30031939398e-06
2.77981952773e-06
0.213600231085
3.28878274163e-10
3.22385728305e-08
3.8313703451e-08
0.207030539433
0.00278926107242
0.0025986584373
0.00379750109257
0.00349480146677
0.210214767714
0.212405537938
0.00413963061772
0.00390114950135
0.0054162151825
0.00508137955825
0.214379888028
0.00308905439357
0.00288162761937
0.207469003981
0.0002834619508
0.000313757158447
1.2322225956e-06
1.75798327139e-06
0.000418718758124
0.000453126678754
0.209836604973
0.0033970483629
0.00317518988872
0.00453944014831
0.00424354295735
0.212659415144
2.37603436494e-06
0.000530481497459
0.000580177431329
0.000474985086937
0.000504793712199
2.18373194195e-06
3.07279131782e-06
0.00066289362823
0.000717206093724
0.000596208476455
0.000646467400543
2.94112358022e-06
0.214153703537
0.00495788140375
0.0046527376188
0.206177701659
0.0898115100405
0.0888356877483
0.103492968035
0.102458580197
0.211056687615
0.211970944267
0.105136205906
0.104411171617
0.117042055805
0.116098940369
0.21484590831
0.0955675895418
0.0947214428332
0.208293542909
0.209260758773
0.0972373641654
0.0964543197239
0.110163933083
0.109353034929
0.213197935993
0.213781179756
0.111717734159
0.1109888856
0.0918282943827
0.0908587002174
0.206607360251
0.0184253424176
0.0187980998467
0.00263834432494
0.00370409315868
0.0241889608221
0.0246702607361
0.0230835549182
0.0236148542579
0.00359089902605
0.210636029444
0.101242371438
0.100055739576
0.106601228047
0.105870872264
0.212181701827
0.00406515891378
0.0258136208829
0.0261634918172
0.0251156446729
0.0254548235785
0.003974136228
0.00530899333991
0.0312335011384
0.0317510872612
0.0302251104199
0.0306925702576
0.00516990475301
0.214607494149
0.115119482013
0.114233260809
0.207881190519
0.0937678993333
0.0928533645608
0.0989432840029
0.0980714228142
0.209536784131
0.00444931473007
0.0275551587882
0.0279830695526
0.0266119989157
0.0270532583867
0.00433198625978
0.212940038886
0.108396310652
0.107501072436
0.11334452072
0.112552000518
0.213962231849
0.00485766551985
0.0293076863105
0.0297387827724
0.0284416716782
0.0288396202107
0.00474661384128
0.00272394572929
0.0192283501333
0.0196021066746
1.32461003761e-06
0.000319702773435
0.000355664919339
0.0200244659581
0.0203678765342
0.00294015637939
0.00302672037006
0.0207573165489
0.0210900653653
0.000361992953971
0.000406557584491
1.65300273206e-06
0.0214830596692
0.0218159879954
0.00324333208526
0.00333230039918
0.0221968693181
0.0225766808153
0.000299202461226
3.03161913856e-05
2.94971798572e-05
3.29039370901e-05
3.17578300887e-05
0.000307196975736
0.000336823080439
3.47313882295e-05
3.3751752787e-05
3.70609233574e-05
3.59043698749e-05
0.000347581294165
0.000381370785289
4.02825388677e-05
3.88699887241e-05
4.31695708579e-05
4.16885440024e-05
0.000388170643157
0.000431949266344
4.63186406742e-05
4.50227014921e-05
4.92222930299e-05
4.76080616911e-05
0.000445816573834
0.00048395675775
5.26425636744e-05
5.1506401195e-05
5.65460339173e-05
5.48182125618e-05
0.000494468056938
0.000540701572482
6.07329445667e-05
5.89952376864e-05
6.50225164866e-05
6.31153764686e-05
0.000551785221969
0.000605704526507
6.93193940358e-05
6.74206838767e-05
7.39451584943e-05
7.19702882502e-05
0.000619881444916
0.000672432901824
7.8034552453e-05
7.60311183805e-05
8.26502207183e-05
8.13055873139e-05
0.000702115398469
1.60179169858e-36
5.17258037011e-34
1.36523659605e-31
2.14429230502e-29
3.28229415529e-27
3.93154847171e-25
3.07524820223e-23
2.06047477377e-21
2.21651299446e-21
1.12607227444e-19
1.20958220997e-19
1.01535227937e-17
1.04125504888e-17
5.08454027703e-16
5.23943536277e-16
3.082671088e-14
3.27650939916e-14
4.0590295487e-10
1.77410876154e-12
1.93558139187e-12
3.20002276798e-14
2.19119010343e-12
2.74622990116e-12
3.43460517721e-14
0.215309875995
0.217217359103
5.90217517803e-10
4.24651907988e-08
5.06809518358e-08
4.67999905101e-10
0.216365709628
4.28167649614e-06
3.44782720776e-06
5.79878167104e-06
4.73271594426e-06
0.216429206756
5.06703974155e-10
5.60879832495e-08
6.80668425274e-08
0.215990717246
0.005971858455
0.00555957795627
0.00752042357647
0.0070593427553
0.21680099628
0.00639265979316
0.00612463889786
0.216134680347
4.0377621535e-06
0.000817676346557
0.000881261940058
0.000734923785029
0.00079280476295
3.7495202768e-06
5.49545068009e-06
0.00100162298561
0.00107764889393
0.000904315609661
0.000974234921569
4.92731129936e-06
0.216681378124
0.0069136350113
0.00652351376867
0.215558993345
0.119025304234
0.118041285031
0.129637979463
0.128800351484
0.217038146141
0.123483953808
0.122887145485
0.216310120998
0.216498912886
0.124835814125
0.124167482572
0.120913000229
0.120014332339
0.215798283539
0.00583469654014
0.0335184746767
0.0340632507648
0.0323389771724
0.0329106898423
0.00569085039994
0.0073656214905
0.0392401993679
0.0398162507992
0.0380534396482
0.0386071508083
0.00719654294478
0.216904300754
0.127908884115
0.127058498054
0.00632159358613
0.035262909209
0.0356472621787
0.0345413848471
0.0348899547603
0.00621946146976
0.216244994599
0.122282836398
0.121667744646
0.126261647894
0.125553791525
0.216573455838
0.00679371675304
0.0370705778922
0.0375267039564
0.0361201700504
0.0365828374178
0.00664353461623
0.000745759336887
8.89204797329e-05
8.66499554793e-05
9.57355632374e-05
9.42380493659e-05
0.00076645485516
0.000837941624068
0.00010136584942
9.87473741428e-05
0.000106814566462
0.000103966687884
0.000858382111232
0.00092350319755
0.00011248312151
0.000110574357034
0.000119724883213
0.000117173828635
0.000934380854019
0.00101632703791
0.00012762098113
0.000124340764883
0.000135776958996
0.000131944808957
0.00104591916912
1.61331705308e-36
1.28363243658e-33
1.96321332803e-31
2.71787765259e-31
3.04403810655e-29
3.90153570232e-29
4.27796685284e-27
5.03062141236e-27
5.07196063598e-25
5.29380370316e-25
3.60493469191e-23
3.82292550569e-23
2.41540439879e-21
1.26054195046e-19
1.07124206013e-17
5.48087458138e-16
3.55770481118e-14
6.42237065281e-10
3.72553623132e-12
4.18354824117e-12
3.97268930028e-14
0.217372061965
0.218328434089
1.00502330138e-09
7.53013859592e-08
8.98539854494e-08
7.46651057885e-10
0.218045060262
7.23321605191e-06
6.11333638742e-06
9.49669596331e-06
7.8930300368e-06
0.218119217295
8.28477073588e-10
9.93409141521e-08
1.18397966337e-07
0.217600887902
0.00804760976525
0.00767803250957
0.00991928293971
0.00949605073569
0.218285941267
0.00879433540772
0.00821963101628
0.217726070459
6.92252383787e-06
0.001210551514
0.00129118772038
0.00109465443422
0.00117708336117
6.30600674664e-06
8.84881023663e-06
0.00146071250292
0.00154691174971
0.00133881033694
0.00142511145255
8.29736502699e-06
0.218264687917
0.00932164911956
0.00891383642507
0.217463274847
0.130993808611
0.130370088519
0.140152197455
0.139649271263
0.218313545103
0.135501634032
0.134773686833
0.217944814305
0.218199032856
0.136748979064
0.136137544718
0.132254227572
0.131596286573
0.217542437834
0.00792728801251
0.0411940079595
0.0416524761173
0.0403516427125
0.040764333023
0.00779771650981
0.00978427175887
0.04735021897
0.0477993294274
0.046504911768
0.0469347093687
0.00964504058661
0.218297439567
0.139064061334
0.138559478405
0.00862187554501
0.0435566587052
0.0440685793531
0.0422686913608
0.0429247228162
0.00841697251949
0.217876471242
0.133945201122
0.133063540438
0.137963120007
0.137368047616
0.218243659674
0.00916890240786
0.0454940011775
0.0460148619168
0.0445273334523
0.0449870859737
0.00904072289957
0.00111298851719
0.000141886410094
0.000138923096827
0.000150681782047
0.000147233101562
0.00114608255533
0.00124144843265
0.00016008788229
0.000154628773581
0.000169860954199
0.000164702557573
0.00127444856758
0.00136001113206
0.000179293155815
0.000174565520875
0.000187639817039
0.000183539462467
0.00138421715348
0.00147995184705
0.000197980530688
0.000192815320537
0.000208633708494
0.000204128404855
0.00151553464231
5.08287802438e-36
1.04044185422e-35
1.64656621179e-36
1.62517729345e-36
1.66206731325e-36
1.70712667771e-36
1.65318809013e-36
1.56898060404e-36
1.27008875107e-33
1.18781468517e-33
3.83413535248e-31
4.42565963026e-29
6.18142430472e-27
5.78611943966e-25
4.04620537307e-23
2.56539199119e-21
1.33306699941e-19
1.11988722289e-17
5.8311932064e-16
4.78185551813e-14
1.12767265668e-09
5.88180844358e-12
8.02537907828e-12
5.39105391603e-14
0.218346983381
0.218870258803
1.96127492851e-09
1.33907387599e-07
1.57671947774e-07
1.38777193637e-09
0.218569185111
1.24567590915e-05
1.02963232713e-05
1.56092902829e-05
1.29100809941e-05
0.218559349355
1.55128706393e-09
1.74969870565e-07
2.10867638594e-07
0.218533976076
0.0107777932783
0.0100928376042
0.0130678579991
0.0122323797082
0.218712039901
0.0113635990753
0.0110390235174
0.21858546805
1.17311225476e-05
0.00173861587553
0.00184537510403
0.00158219431133
0.00167532299739
1.08822639545e-05
1.45950716071e-05
0.00203987701511
0.00219337191185
0.0018680686695
0.00198479631639
1.33866143221e-05
0.218641283101
0.0119932415795
0.0114450188463
0.218397853383
0.141504444143
0.140824979707
0.150418747565
0.14967881632
0.218838132226
0.14497681451
0.144622620321
0.218590081276
0.218561223211
0.145989017276
0.145425711053
0.143032054184
0.142292603773
0.218453399339
0.010537065066
0.0496863031795
0.0503505380462
0.0483387648314
0.0489783891307
0.0103086299985
0.0127858883449
0.0564004000237
0.0571006890032
0.0549368635533
0.055694554956
0.0125008437911
0.218781328628
0.148896382059
0.148135881997
0.0112668663897
0.0517961498604
0.052104394542
0.0509725980882
0.0514115474635
0.0111756187185
0.218595254382
0.144157910464
0.143686675844
0.147418457177
0.146663107039
0.218580482119
0.0117709111911
0.0535359762806
0.0541902520637
0.0524585843736
0.0529493891685
0.0115869411543
0.00160808571733
0.000221068162795
0.000215344286262
0.000233566381652
0.000227248415534
0.00165244965035
0.0017602022239
0.000245775452889
0.000240007506792
0.000255734898224
0.000250312271933
0.00181171632991
0.00190195097833
0.000269013530223
0.000263302173368
0.000281641816527
0.00027528267865
0.00196077783671
0.00206815200488
0.000298466733245
0.000289448207976
0.000314322936764
0.000305642532483
0.00214654101338
3.02569921681e-35
3.63595520107e-35
1.49356924896e-36
1.52564134206e-36
2.08210791207e-36
2.14184631926e-36
1.50899697347e-36
1.81078616437e-36
1.82800020556e-36
1.54408243996e-35
2.78349494067e-35
1.57473075947e-36
1.99212495461e-36
2.07154961697e-36
1.52873446412e-36
4.9209510199e-33
6.20199904467e-33
1.10904456985e-33
7.79298837064e-36
8.04524636714e-36
3.44184429028e-35
1.50067069597e-36
1.79009411063e-36
1.79381969635e-36
1.79366719818e-36
1.80739555951e-36
1.51130347543e-36
1.88441246134e-36
1.87079211682e-36
2.12902123763e-36
1.78170831032e-36
1.78487143188e-36
1.50359276349e-36
1.81687581663e-36
1.81212573039e-36
1.81944341487e-36
1.8155257646e-36
1.80594719115e-36
1.80379851853e-36
1.51489656261e-36
1.77374233075e-36
1.77735867579e-36
1.76791406394e-36
1.77109445806e-36
1.52046654475e-36
2.11641719214e-36
1.86508310018e-36
1.85862466446e-36
1.54623864401e-36
1.77524580514e-36
1.78680856013e-36
1.79650220813e-36
1.78824286285e-36
1.78406301761e-36
1.80015031708e-36
1.79115939917e-36
1.80179522693e-36
1.75357984519e-36
1.76811192562e-36
1.55015599101e-36
3.34718535604e-35
8.30489162337e-36
8.61124718891e-36
1.61627688228e-36
1.89728919888e-36
1.97925001944e-36
1.84919825383e-36
1.8421438075e-36
2.05682910703e-36
1.53728502883e-36
1.76032739174e-36
1.76289223948e-36
1.75312818204e-36
1.75747568586e-36
1.54057438964e-36
1.7801675804e-36
1.77658784954e-36
1.78376351043e-36
1.77748624664e-36
1.77271830022e-36
1.76585829427e-36
1.55920126843e-36
1.74577621669e-36
1.74918139978e-36
1.73850014924e-36
1.74237839125e-36
1.56261359401e-36
1.59445851404e-36
1.73560666466e-36
1.75010378147e-36
2.02415634364e-36
1.83571765729e-36
1.82658576986e-36
1.76178184416e-36
1.75830302595e-36
1.76451640532e-36
1.58005028685e-36
1.72963338706e-36
1.73461044501e-36
1.7613106324e-36
1.75467107533e-36
1.7492263208e-36
1.77499655862e-36
1.87010592331e-36
1.62054811728e-36
2.22724169291e-33
3.20861385258e-33
1.25410102278e-33
8.96932290058e-36
9.55801767711e-36
2.29253202327e-35
1.71000492308e-36
1.72846024034e-36
1.59865060647e-36
1.82042340357e-36
1.81316808184e-36
1.96063474262e-36
1.72050773797e-36
1.72456561844e-36
1.58744501214e-36
1.74553688251e-36
1.73978570973e-36
1.74532093376e-36
1.7389638856e-36
1.73582346614e-36
1.72957908817e-36
1.60643113082e-36
1.71073983697e-36
1.7142526014e-36