/*--------------------------------*- C++ -*----------------------------------*\
  =========                 |
  \\      /  F ield         | OpenFOAM: The Open Source CFD Toolbox
   \\    /   O peration     | Website:  https://openfoam.org
    \\  /    A nd           | Version:  8
     \\/     M anipulation  |
\*---------------------------------------------------------------------------*/
FoamFile
{
    version     2.0;
    format      ascii;
    class       volScalarField;
    location    "1.2e-05";
    object      p;
}
// * * * * * * * * * * * * * * * * * * * * * * * * * * * * * * * * * * * * * //

dimensions      [1 -1 -2 0 0 0 0];

internalField   nonuniform List<scalar> 
49986
(
101325.000093
101325.00032
101325.001299
101325.005322
101325.021904
101325.090272
101325.372158
101326.537398
101331.355068
101351.200387
101432.419708
101373.572492
101423.060255
101544.718185
108022.741262
102037.254211
158339.733191
115809.139022
111503.80867
101731.106936
111673.979326
102598.203594
104076.01033
102284.405095
103197.3725
122410.666764
116639.78261
101456.367165
104287.308597
116303.069236
122773.506104
104214.586274
115844.595451
106681.191217
134978.174393
122328.973751
102257.61811
101962.446661
102937.875632
117616.994962
110464.701345
113256.810324
111960.73692
106050.123908
103320.933664
105288.03178
110115.991366
121327.599783
127519.875563
111716.898495
120073.03306
113705.18629
101553.557607
118182.030733
103756.60788
106467.393643
104005.550973
102823.890198
110738.046118
106002.006222
110403.064767
119632.354448
103545.3646
108234.691105
106281.544307
110809.923562
106728.20604
112278.262218
113717.523801
111282.307961
110130.745453
113582.303781
110188.354884
158206.429052
129591.007741
115918.6788
104476.547271
104728.592251
116077.147204
107341.453016
109765.895184
122569.20846
115410.656121
117805.89546
117470.856133
115571.933266
113114.359046
115252.787177
122168.859632
106659.82858
106916.876463
115526.936114
114737.223336
113968.996915
123320.579674
128403.433979
148394.342863
117827.240933
123261.715581
122665.175215
105195.760853
117721.662299
107950.925618
102353.563421
102484.326811
102154.810127
103057.646071
102835.571805
102683.013531
117480.204411
105219.676488
105550.567329
113234.310515
112921.183882
112198.312908
114209.26019
110358.946505
106844.998029
119625.764174
115098.355508
118337.473527
125544.870614
113568.87851
117575.31201
119349.81563
119109.655993
116432.429489
117218.042824
118648.799726
117532.775864
103711.718277
102122.755845
101384.489161
110829.325091
104811.869032
109979.951468
106041.531308
106303.45916
120308.774233
104492.314771
103888.854181
103437.726971
105584.610027
104927.311059
106020.097977
113900.462882
114577.964544
114011.837276
113254.558289
114368.924932
114195.569408
113142.486696
111828.533017
113094.008407
101325.022785
101325.058067
101325.189215
101325.612092
101326.989198
101331.450856
101345.85625
101391.981723
101538.867189
102006.25265
103389.363306
104948.35012
108896.121422
107268.300385
105501.45909
105495.881199
115121.866933
109585.335363
102157.063907
105026.365143
102594.961373
105835.41664
111788.780682
101347.818975
103299.236553
100745.167432
101092.898755
111321.184087
103577.003781
101330.339048
101142.122811
113808.149624
100924.814148
101356.743851
100666.355538
100896.34364
110328.556569
100950.915134
100992.371159
113325.959853
101662.356453
101238.534642
101160.18492
101884.997637
101623.294438
102166.233434
100731.859316
100857.161146
100826.167799
101064.654122
100990.61012
100903.706429
110962.718476
100937.150828
100923.979829
114598.725037
103963.74342
104083.722721
102693.713829
102892.87759
109703.351938
103428.185066
103746.125321
112224.77823
111357.024868
103336.809805
103393.712819
103821.725063
103652.050483
114159.370792
100861.502134
101199.207891
101324.331584
101607.235293
101269.343869
100962.202046
100703.484634
101673.537677
101615.516106
101761.24512
101763.835474
100842.559462
109781.277134
103025.611393
103160.330788
101053.268177
101673.073583
101594.155681
101555.882637
101633.744499
101011.6183
112685.784645
103806.816718
103907.105758
103363.699912
103398.669358
111434.270914
100917.03098
101687.562409
101752.694977
101612.20424
101630.659975
100890.428931
101325.285967
101325.614716
101326.851785
101330.405863
101340.719711
101370.004126
101451.210359
101670.902266
102236.055006
103275.040382
103984.938259
104681.102746
102266.743517
101582.068865
100964.680065
103183.967256
101683.53518
103479.419208
101102.728415
101137.497902
101522.031855
109265.874245
107767.77503
100929.585884
107726.720279
106303.943396
101170.670813
101039.704015
100917.356126
101016.963137
100985.94596
101097.88391
101031.753115
108549.575621
100721.960019
100779.083881
100892.154895
100736.667365
108481.55345
100877.504971
100818.295191
100875.650686
107404.05167
101262.941386
101007.559799
101289.372033
101275.901373
107359.263351
101140.835405
101182.73281
101174.551296
108733.693967
100791.721141
100699.093287
101105.633543
101007.833458
108120.054876
107464.71154
101200.739191
101125.427726
101550.683001
101319.256367
107146.390735
100732.892096
100794.667357
108584.391639
100753.942902
100903.619444
100868.281998
100897.3352
100915.936878
100753.512972
100814.264157
101036.343796
101137.80033
100905.898138
100962.764873
100749.426197
108317.99183
100964.602593
100774.856897
101143.823662
101209.027503
107427.309709
101187.517668
101258.294614
101229.785281
101211.776295
101264.942544
101131.991164
101270.134896
101256.343941
101324.897313
101201.870723
101278.101307
101309.00801
107322.631702
101284.113011
101159.279708
109144.837127
102359.936005
102486.367046
102212.091364
102225.474198
107818.386936
107687.621701
102184.75837
102159.516512
102448.202662
102321.452943
106539.818044
102129.478098
102121.19536
108646.281158
108377.058168
102210.984519
102164.285049
101905.461521
102000.015876
107412.596286
107238.426276
101702.203357
101780.271412
102213.55662
102306.117706
108891.462752
100790.935775
101840.71686
101904.169374
101667.836089
101746.495344
100735.789606
101081.039699
102703.177113
102762.492084
102605.102976
102632.454845
101030.505708
107950.500695
102265.875169
102387.115561
102115.608941
102193.566596
107520.357843
101188.54251
102958.972861
103008.343335
102797.181088
102880.367388
101152.109799
101435.273584
103519.921863
103629.797564
103400.284102
103447.74621
101366.478916
106831.127467
102189.154775
102062.431319
100745.614677
102017.669265
102051.768152
101925.972874
101950.981768
100745.796815
108583.589424
102023.98121
102055.141449
102434.489724
102330.912438
108341.325954
100917.471799
102425.584055
102555.011941
102133.147944
102258.54818
100829.199969
101180.84007
103147.500218
103130.609046
103052.759741
103112.620596
101201.15081
107484.183433
102001.406338
102011.841613
101929.797492
101732.971218
107228.10455
101231.253697
103348.066897
103407.307831
103169.467765
103257.064406
101176.963563
101254.738538
101217.649286
101260.264866
101233.761115
101191.120624
101177.285451
101156.82346
101125.496098
101299.570767
101326.947428
101328.525056
101334.886115
101351.185194
101393.462115
101499.279005
101752.897165
102309.20886
102318.508485
102761.479752
102969.988686
102931.761441
103266.423999
102884.292797
103154.258699
101975.409144
101292.353509
101224.711791
101186.821085
101309.342706
101293.69628
106020.36534
103961.524531
101562.490139
101207.00614
101322.22623
101280.590117
104957.092411
101716.118783
101326.548015
101634.648523
101734.741724
104850.623813
101415.626448
101469.425418
101546.35569
105402.305458
101951.981706
101694.496539
101979.19014
102093.649878
104247.52269
102071.972365
101964.964581
105263.618301
101577.850919
101647.242871
101679.335807
101416.074966
101636.57229
101417.684913
101691.080776
101577.733231
101450.251519
101661.094893
101602.929692
101748.905113
104393.315317
102132.695002
102121.366404
105812.163867
102783.125965
102597.761446
102952.994775
102931.138148
104003.62604
102738.911225
102694.874045
105040.776379
104739.473278
102836.94746
102774.470977
102726.136966
102837.862556
105617.249308
101921.923115
103736.547804
103697.262602
103747.840193
103857.527878
101831.029712
101984.662418
102818.310677
102761.429312
103016.35623
102897.377265
102037.35122
104104.719579
102943.639561
102957.835504
102027.020647
103478.723437
103332.735347
103515.196512
103464.938132
101980.073694
105101.023124
102633.885683
102661.792045
102948.413492
102920.233632
104577.438356
102143.885474
103254.966245
103165.732598
103366.02178
103336.209776
102139.826658
101673.957384
101702.270131
101623.273728
101529.481651
101559.998052
101619.444697
101500.43282
101515.496295
101478.882569
101644.059702
101721.823359
101745.508988
101783.5852
101766.934041
101671.768008
101650.689712
101717.002062
101636.099741
101553.641667
101476.262091
101605.38322
101514.51787
101382.487004
101311.70466
101334.266165
101339.15723
101368.974809
101362.435751
101435.082319
101415.130382
101566.025638
101538.059132
101839.549155
101806.982009
102277.462183
102626.723244
102740.039979
102703.305334
102196.6285
101511.974611
101346.387043
101670.528342
101462.401247
101538.167299
101432.915494
103902.817163
102963.711249
101643.351931
101550.707215
101506.987437
101686.682236
103318.947424
101580.980106
101614.208078
101550.182873
101592.232678
103282.398274
101649.879481
101454.523439
101431.337417
103671.946615
102153.442191
102002.516913
102383.943431
102345.736466
103015.069167
102216.130649
102163.502892
103573.673297
101560.568618
101487.659358
101500.044643
101435.81166
101489.239853
101559.295589
101577.117903
101500.752272
101463.942117
101520.274471
101520.318007
101587.707363
103127.047774
102335.742215
102259.895745
103833.044954
103114.998645
102989.986151
103716.532052
103654.090225
102934.145434
103357.182246
103391.276197
103393.314958
103263.869916
103461.627466
103374.064369
103287.952851
103227.800716
103761.893595
102135.26922
102777.216217
102708.334392
102732.415028
102760.072869
102075.968818
102365.526777
101873.255644
101819.758853
102077.773129
101969.435937
102357.616719
102954.801887
103659.786794
103684.670836
102192.490418
102432.384123
102334.715812
102634.055096
102541.42277
102175.890399
103492.043939
103414.534942
103363.313888
103651.957484
103555.681276
103232.833687
102326.955129
102226.789575
102169.18562
102273.985727
102270.037579
102312.441834
101459.7859
101487.800737
101481.907884
101483.878298
101489.309184
101490.178886
101479.242649
101492.68496
101491.779912
101520.439035
101509.269064
101487.137202
101536.613078
101535.916516
101532.558823
101520.46242
101530.107935
101532.007847
101489.316341
101494.343066
101505.187722
101456.760902
101475.812469
101476.928858
101359.834563
101434.022878
101438.488182
101591.769772
101854.361666
102236.851601
102517.773211
102617.897835
102597.949142
102263.931888
101741.600258
101483.0695
101500.018796
101628.033887
101559.279704
101535.745533
101494.22
102975.025074
102591.682881
101558.481081
101391.419761
101345.53359
101608.131346
102683.318653
101457.848906
101518.246803
101501.950775
101451.615569
102638.144368
101580.873846
101318.761662
101320.33231
102807.802405
102414.592846
102405.235526
102738.382282
102632.711302
102474.954866
102595.920997
102438.57625
102681.104485
101468.374828
101367.466738
101443.1253
101453.188635
101373.635386
101477.030866
101479.645444
101394.860928
101416.220775
101451.020968
101406.829799
101465.848986
102518.159585
102615.892455
102630.044821
102971.340132
103934.711408
103828.818843
104783.283812
104602.170219
102589.261452
104310.455105
104170.540447
102685.336501
102595.852126
104446.645349
104389.532843
104093.239901
104022.652001
102930.993088
102386.318723
101662.985522
101605.045691
101809.461365
101751.285269
102400.929444
102689.105125
100881.909433
100911.877684
100985.340865
100917.210444
102660.217029
102508.644815
104492.15097
104472.85934
102510.763661
101353.389161
101380.808266
101511.756948
101420.301624
102464.637
102668.504694
104099.19957
104085.187122
104486.877783
104469.094829
102559.670195
102600.149017
101167.376433
101072.99347
101362.062516
101286.976618
102633.173954
101432.174108
101413.58581
101437.376564
101363.549697
101383.243931
101401.721923
101373.759987
101359.715989
101356.847913
101390.443271
101376.690848
101406.766123
101446.904908
101388.87997
101392.346357
101374.627718
101380.018005
101425.028627
101395.700909
101368.601544
101370.56131
101387.265291
101372.289017
101400.25282
101604.886122
101578.868154
101869.446063
102205.258654
102447.853601
102524.592148
102518.655586
102285.502204
101847.2308
101575.362529
101465.519274
101478.056257
101551.018156
101500.011827
101482.259167
101461.072567
102513.166395
102013.280875
101543.476121
101313.977071
101308.516691
101549.034689
102341.598331
101460.660161
101514.70681
101506.681257
101469.841295
102238.065008
101543.889203
101312.304995
101315.553021
102327.745309
102860.603327
102753.021363
103039.109745
102993.874224
101919.082938
103015.154635
102944.371959
102305.554742
101484.775073
101512.064683
101482.007709
101426.412213
101477.192488
101507.192005
101526.038481
101399.181739
101485.901289
101391.859119
101365.630169
101505.479736
101958.970363
102941.441699
102933.573795
102441.513432
104891.278864
104865.55074
105439.92429
105457.134893
102046.764965
105127.065777
105093.542166
102387.770469
102134.263166
105167.787084
105129.65321
104880.681979
104891.161096
102378.932698
102802.728975
100736.992704
100690.656736
100866.27867
100804.773227
102773.967541
103085.724891
100393.434717
100389.907561
100325.810383
100350.289312
103086.460479
101979.844645
105383.616686
105241.90932
103031.410183
100726.724903
100672.020682
100690.069853
100751.853808
103016.594686
102381.275679
105038.282401
104896.9812
105227.066525
105184.400578
102025.289807
102918.086915
100414.627434
100371.341992
100568.840953
100488.766529
102909.036661
101433.592861
101401.083279
101395.371365
101416.934366
101405.857797
101449.04538
101523.322416
101412.469674
101417.42779
101360.94086
101409.7967
101521.110361
101368.722155
101324.004706
101322.445854
101334.189552
101325.074479
101360.018896
101489.520966
101408.328611
101361.948547
101372.140912
101402.853373
101500.188029
101935.127323
101831.145237
102167.677828
102362.331672
102447.125102
102452.171577
102287.734313
101920.731481
101634.934361
101523.91345
101457.596098
101445.177657
101533.272309
101422.970958
101470.870813
101437.866441
101416.922988
101910.126155
101339.246673
101438.521907
101412.541951
101405.276537
101423.396482
101282.19262
101236.508808
101509.913168
101232.717181
101245.79355
101417.693749
101708.514144
101390.079015
101443.143538
101434.159575
101373.389939
101655.522385
101466.319242
101209.846258
101217.58594
101290.718041
101458.159333
101460.089027
101512.677558
101441.525735
101293.688957
101421.146222
101280.192222
101309.876924
101582.643776
102827.082118
102973.312536
102552.509523
102619.423038
101381.484056
101398.392053
102539.678204
102600.671894
102204.785293
102160.1185
101065.847552
102900.541019
102802.723686
101547.005429
101452.515158
101349.643005
101401.409749
101395.544889
101529.443266
101633.496528
101455.943852
102676.839858
102877.418443
102416.401074
102506.189029
101371.68431
101464.946022
101784.150116
101827.270769
101729.734273
101776.220528
101466.892013
101486.512936
101794.200106
101960.810534
101825.429087
101793.158251
101454.48006
101137.890897
102212.342576
102371.682127
101783.335818
105343.604022
105393.995456
104944.294677
105013.675273
101320.826393
101442.924131
105005.523785
104975.037722
104800.332341
104629.374584
101200.625068
105361.861585
105376.869164
101692.073932
101581.30588
105253.735367
105302.007658
104953.67645
104996.723636
101290.372404
101275.480718
104844.414695
104894.94781
105244.156105
105290.112244
101661.915436
100367.024521
100352.080628
102922.102264
102545.775844
100764.687297
100815.235236
100706.627587
100739.220775
102581.950534
101318.496382
105129.190983
105185.561711
105024.948238
105023.296504
101424.021612
102571.0565
101093.333433
101143.302267
100943.174851
101031.90508
102603.908616
102168.972357
101604.625059
101779.86078
101383.352741
101450.211592
102141.407112
101077.293318
104568.699915
104597.941769
101596.510603
105270.51079
105215.501692
105189.45907
105214.404028
101511.813132
102441.785228
101273.496288
101302.125951
101197.3658
101248.592202
102475.891685
101332.26947
105035.253011
105025.693144
104680.092464
104757.698882
101215.039169
102259.326327
101336.647276
101357.675066
101312.060427
101328.919126
102319.073121
102860.490775
100358.592612
100372.360128
101397.187897
101361.753814
101557.29213
100389.469229
100452.07775
102807.801852
102879.513573
100601.061759
100657.615357
101569.08764
101517.858921
101370.395141
100666.774517
100676.855169
102826.437337
102734.087667
100683.410044
100688.664279
101384.166741
101241.90613
101325.27866
101188.463228
101197.187738
101349.249773
101407.709982
101212.689872
101186.964448
101276.615364
101266.564504
101518.100955
101565.747512
101265.657571
101272.650244
101224.094347
101227.689843
101534.229173
101541.980711
101234.291437
101227.834165
101288.3498
101241.44916
101558.426243
101762.050752
101335.786638
101324.256211
101350.477255
101345.901137
101766.909415
101798.618774
101347.039352
101349.049313
101338.172774
101344.30935
101813.989539
101807.416285
101295.265142
101325.345035
101287.191351
101285.430676
101789.433429
101827.892568
101326.213125
101289.763731
101398.130872
101385.362815
101909.4929
102704.091939
102141.208906
102359.146896
102406.238837
102401.754609
102283.542242
101976.749213
101695.150484
101582.406503
101535.736898
101485.286222
101488.735631
101447.647144
101431.97614
101410.47737
101388.613794
101370.121622
101419.546685
101410.539505
101406.78658
101360.167055
101427.719173
101454.525331
101385.111106
101444.573458
100570.135113
101397.53271
101332.46343
101354.093462
101417.796251
100990.114721
101479.010619
101499.403622
101464.817349
101498.089914
101314.685539
101401.774409
101378.482426
101412.576218
100936.794544
101969.699479
102159.079724
101526.401386
101745.605688
101166.791992
101807.45556
101900.072398
100762.636992
101456.817397
101965.664129
101999.54369
101976.377188
101982.458703
101464.033173
101446.153566
102121.228695
102093.030043
102102.893784
102162.980709
101484.94354
101349.996416
101860.901217
101862.190042
101371.617328
104761.009941
104803.294878
103963.109646
104162.841626
100677.411715
104211.909482
104216.771323
100790.000675
101448.323086
104565.297711
104386.628331
104518.893083
104671.719951
101212.315078
102039.069797
101802.687216
101803.339477
101817.129455
101811.848733
102110.323407
101579.850991
102244.768101
102251.266504
102297.26493
102264.12089
101652.647605
100897.573265
104368.560762
104498.452757
101808.336958
101835.459495
101900.523132
101787.349011
101805.496046
101851.799874
100722.476341
104297.961727
104382.588051
104566.185363
104577.272568
101443.708409
101949.186042
102385.765309
102352.986286
102080.313209
102347.089769
101974.740818
101994.119421
101392.18573
101395.303672
101344.193359
101382.150905
101997.335414
101957.965222
101314.753502
101322.004209
101346.5698
101314.799188
101956.812074
102163.727054
101412.406463
101408.638676
101397.955912
101405.666913
102170.581969
102084.413841
101340.600353
101371.923893
101339.798306
101339.37981
102086.726249
103734.400354
102300.745506
102419.154751
102390.466639
102392.421731
102309.138083
102288.036359
102084.231233
102023.272573
101791.803979
101737.317072
101595.071634
101497.400046
101440.781531
101422.092973
101412.86617
101405.298237
101386.272112
101484.202336
101510.942815
101415.612525
100633.968793
101409.955103
101352.829921
101447.127458
101486.764906
101376.685516
100756.98495
101504.311092
101504.333758
101578.925816
101487.154517
100597.567194
101360.310046
101517.651616
101552.19234
101534.337676
101612.779771
101484.074195
101145.998479
101265.144814
101306.647421
101364.817925
101624.615685
101501.955686
101543.756622
102355.244971
102307.107116
102099.060635
102325.76309
101545.894702
101574.36641
102348.935278
102477.999418
102286.696157
102323.729573
101525.130318
100861.841567
101269.886559
101313.325558
100958.172627
103901.082055
103841.134717
104127.290421
104212.176259
101457.678102
103924.604211
104093.642612
101107.900643
100530.545527
103659.319685
103791.728035
104308.918618
104151.347032
101347.968047
101495.22253
102578.978466
102794.346369
102293.037584
102400.832183
101466.528078
101191.764647
103384.021039
103336.671808
103246.852155
103384.773131
101254.574645
101468.539398
104217.11547
104007.959687
101446.105974
102793.849646
102753.806915
102892.993968
102866.824792
101556.04828
101335.597358
104278.641741
104354.580639
103626.615948
103560.948307
100588.723811
101278.135573
102858.046559
102994.122086
102755.713402
102782.993034
101280.18749
102129.344522
101359.642054
101341.168066
101469.960336
101443.18853
102222.279535
102366.769014
101483.683231
101480.510417
101421.192812
101464.194704
102350.77513
102294.601191
101398.242187
101397.216028
101413.468193
101408.722936
102310.994234
102409.909727
101511.941543
101453.881455
101543.125748
101539.219641
102438.705033
102527.159456
102389.940436
106495.009715
105006.157952
103083.12951
102902.125716
109952.849524
130136.974316
102299.831388
102437.262542
102332.674206
102126.70329
101858.289242
101660.370272
101531.84381
101470.256763
101429.578425
101421.564449
101433.328858
101431.000925
101351.414995
101536.741252
101573.957579
101452.302359
101303.435032
100864.000337
101365.620085
101573.141028
101624.730586
101353.408583
101038.848628
101537.551844
101536.522225
101371.390045
101607.256486
101140.106557
101357.133289
101608.724031
101632.035108
100674.991168
101181.217227
101109.539282
100617.662843
100872.30653
101441.183338
100818.862202
101095.21697
100610.043461
101454.295054
102504.326944
102325.929247
102532.962717
102604.087446
101455.121893
101434.033845
102798.28979
102545.280687
102388.139911
102791.04092
101570.392014
101389.956316
100925.684645
100767.795392
101093.932681
103765.589555
103955.366353
103359.835121
103538.433596
101222.795584
103495.104266
103406.022844
100842.990134
101227.797246
103684.52827
103582.385567
103467.286701
103580.128183
100840.882604
101108.834773
103169.131362
103281.406676
103267.886904
103200.315596
101094.731334
100705.739357
103841.672231
103891.860286
103916.745256
103867.125721
100795.965001
101383.577061
103650.290424
103702.231563
100916.69001
103472.224234
103473.779204
103464.630933
103488.119099
101001.631883
100672.933392
103388.860624
103407.359848
103734.39791
103741.936989
101305.215836
100932.078109
103932.907942
103958.352775
103522.993982
103733.931545
100844.563314
102592.258993
101544.691099
101549.959806
101434.786123
101505.233158
102616.17674
102390.762577
101344.254882
101365.669561
101385.872998
101347.877811
102334.137658
102583.807694
101684.813113
101570.191072
101711.167768
101723.027841
102723.410553
102743.458832
101485.879936
101650.009943
101326.682502
101373.146326
102623.777351
102496.935656
102489.512878
139816.545771
135439.797801
102441.442362
102438.957264
137682.653992
102435.476056
102464.125558
102308.925388
102414.254443
129446.876038
102556.717056
102455.412535
134648.819375
102370.149294
102426.232465
102484.027323
102462.139679
102481.745867
102507.146028
139130.360124
103745.761388
103830.775854
102453.326941
102423.188422
137138.88
102450.162471
102443.23232
102433.739825
103623.631579
103660.538462
138316.853241
102494.917932
102476.537193
102457.537003
102445.656068
102453.120765
102430.472455
136607.678213
103660.141007
103626.916873
103579.300875
103636.196653
136054.108028
102425.220663
102431.732441
102431.297925
132780.672765
102424.602385
102435.982926
102458.477257
102495.860522
102474.09497
102443.670951
102499.013374
102456.493852
102457.218739
102455.84067
132259.051292
102513.924429
102516.900313
102540.331711
124418.257394
102501.352908
102597.278646
102437.153624
102432.970807
102484.57079
133879.192635
103386.897457
103458.114653
103415.135661
103359.483961
133299.957293
102432.555727
102390.752383
102428.369786
102402.050961
102366.496486
102437.056095
131693.303547
103392.57249
103424.478095
103187.496536
103306.212439
131012.54822
127737.809283
102630.613445
102445.295784
102510.335522
102444.179139
102493.306555
102469.478175
102451.505719
102464.646113
128879.029527
103187.278553
103144.146127
102458.498618
102413.436846
102356.583704
102523.954551
102387.814662
123660.481844
102337.902689
102366.385361
102339.609527
102539.634199
102417.093562
102341.845794
102867.220319
102667.18427
127006.737304
102548.952088
102634.877137
102621.264597
103302.714562
103296.189259
128331.904234
102310.862011
102358.681087
102458.193485
102553.956679
102492.00661
102525.737119
126122.810204
103274.44733
103286.380014
103538.073431
103350.250646
125214.737868
102620.289241
102707.894357
102718.874822
119998.902061
102709.855878
102912.128639
102523.00244
102535.352769
102725.315231
104571.190904
103511.560261
117701.069758
102309.929962
102354.661626
102383.633042
102543.842192
102431.629651
102361.877369
122802.540739
104131.553398
103878.901408
102794.16925
102597.568046
102824.596812
105105.339716
104598.985236
121674.178452
103109.813263
103373.043303
102869.12968
102751.150157
103447.76803
103400.126566
114480.369833
106880.114106
105822.650947
140395.864563
102459.573101
102212.990561
101919.503994
101696.8747
101568.758893
101485.999594
101455.665026
101436.862513
101437.44091
101468.302873
101486.539306
101382.975569
101623.720609
101643.419031
101508.931352
100535.065705
100870.65546
101305.764252
101652.194487
101586.541879
101363.822579
101634.125058
101414.796906
101376.556345
101299.231184
101269.362645
101626.636344
101335.762832
101488.334005
101492.551371
100537.294897
100303.958892
100516.418573
100389.038546
100225.454271
100176.947403
100682.932605
100576.211439
100882.008008
101489.05525
102829.472242
102793.333383
102491.947591
102568.982268
101484.02724
101261.375601
102286.637426
102522.062497
102626.585828
102351.308957
101240.172971
100371.625872
100378.241571
100617.056661
100430.151218
103015.111988
103180.349758
102705.612053
102518.672263
100324.282572
103385.82322
103395.626704
101517.366176
101418.826479
103311.759991
103367.737469
102867.69686
102891.713043
100426.453756
100313.612827
103766.115458
103814.636341
103896.836752
103819.407822
100405.410258
103987.934952
103907.892668
100093.895136
100165.860052
102514.368965
102674.416537
100701.484773
104529.310861
104398.957381
104239.938832
104561.819985
100756.410068
101261.11214
103368.082357
103149.538041
102919.932666
103143.918715
100861.230538
100510.793758
104161.291729
104079.792589
104265.82692
104155.826969
100547.8584
100113.847651
103863.335656
103965.441852
102465.663418
102422.54293
149393.301691
102460.111709
101315.021254
101310.293888
101551.188263
101387.226486
102475.765284
145211.010417
102452.26224
102439.526961
147735.75565
102467.935088
102435.026034
102445.80711
102450.752986
144673.423002
102402.41101
102352.079443
102413.153919
102900.364361
101717.85767
101718.9144
102435.981091
102442.034912
102434.923633
148858.539599
104338.495124
104327.104822
102435.767945
102459.208837
147055.801609
102436.856766
102440.215543
102445.724736
104283.764223
104325.42841
148310.170705
102434.773753
102476.174296
102450.793124
101610.3328
101688.847301
102860.653032
104091.131852
104097.101342
145743.1231
102448.319093
102447.651279
102446.365142
102467.134465
102495.604582
102488.496527
142734.668786
102461.226461
102463.59466
102440.076741
102437.115969
102445.986903
102473.939371
102453.094642
102452.998209
146323.134236
104131.394683
104198.98623
102468.71228
102447.679534
142039.533297
102450.347409
102445.631635
102445.84585
102447.430494
102456.393679
102452.768562
144113.473229
104083.96474
104107.755987
103926.644409
104027.049076
143500.756296
102501.968473
102504.703218
102474.8366
103866.688526
103866.808672
140942.854835
102511.905845
101356.722767
101434.611881
102447.654618
102456.1428
102451.38822
102468.118454
102492.19998
102472.248539
102448.363037
102434.200829
102438.562356
141477.051478
103847.519317
103875.023588
102442.522345
102471.422983
102503.178414
101328.600854
101328.456338
102458.266941
102234.39992
101381.169361
101342.777022
101582.773164
101519.50811
102292.197915
149930.823881
102355.59104
102033.22154
101791.206392
101631.136565
101544.284552
101482.447942
101461.745087
101455.564042
101463.683218
101489.636853
101503.141257
101261.295756
101599.677995
101572.543168
101486.766833
101300.174343
100290.851458
101236.842841
100177.309378
101349.897507
101316.703507
101359.575655
101355.63795
100389.085659
101229.93167
101523.241289
101547.533378
101282.291013
100655.395587
100675.144439
100564.893722
100868.128246
101516.460366
100373.084428
100594.119133
100828.285775
101334.956584
102255.029036
101938.495734
101550.292732
100913.661567
100377.118042
101523.893448
103256.501514
103063.998658
102723.965256
102965.692188
100823.893335
102464.914015
102574.363275
100188.370516
100881.089262
102671.236803
102524.614059
103196.73842
103303.399337
101474.505237
100703.653856
103976.707355
103879.316549
101301.353421
103151.950681
103216.253383
100376.543769
102734.257467
102958.217547
103222.673697
103032.640748
101375.966801
102253.113914
102334.816247
101341.271292
100804.570783
104292.966747
104380.763352
103962.833396
104008.914148
100532.875834
104279.489801
104131.391261
100752.033291
101505.271892
101506.248257
101225.157698
102538.79299
102362.03725
101319.914411
100684.43747
104355.824806
104246.840158
104323.316146
104410.317834
100710.374131
101332.896473
102306.023982
102185.134984
104126.67598
104029.839475
100508.461767
100426.44027
103979.033574
103957.801604
102402.614184
102310.175143
158603.886039