/*--------------------------------*- C++ -*----------------------------------*\
  =========                 |
  \\      /  F ield         | OpenFOAM: The Open Source CFD Toolbox
   \\    /   O peration     | Website:  https://openfoam.org
    \\  /    A nd           | Version:  8
     \\/     M anipulation  |
\*---------------------------------------------------------------------------*/
FoamFile
{
    version     2.0;
    format      ascii;
    class       volScalarField;
    location    "1.2e-05";
    object      rho;
}
// * * * * * * * * * * * * * * * * * * * * * * * * * * * * * * * * * * * * * //

dimensions      [1 -3 0 0 0 0 0];

internalField   nonuniform List<scalar> 
49986
(
0.0701947322817
0.0701947323933
0.0701947328762
0.0701947348608
0.0701947430455
0.0701947768012
0.0701949160132
0.0701954915749
0.0701978713743
0.0702076727031
0.0702477493923
0.0702187124894
0.0702430899748
0.0703030854978
0.0734578328612
0.0705457101174
0.102811727211
0.112641653816
0.0751330265581
0.0703945727353
0.0751958007826
0.0708205524664
0.0715453537306
0.0706672118053
0.0711145683753
0.106281623726
0.0775519702046
0.070259473778
0.0715534748538
0.0773926761615
0.107958900654
0.0716123085867
0.0771818089991
0.0727243202164
0.103736001775
0.0802124452094
0.0706572998921
0.0708147684041
0.0711553019194
0.110738428492
0.0746370591007
0.0759703366645
0.0753473439065
0.0725030824998
0.0711745530639
0.0721299170215
0.0744303559395
0.0797516977524
0.102896785308
0.0752132213638
0.0791612727795
0.0761311514864
0.0703076001286
0.0782690159135
0.0713834842017
0.0726109725883
0.0714721821468
0.07094786276
0.0746979943247
0.0724111323466
0.0745413196172
0.110124083403
0.0714355654387
0.0735657967157
0.0726157094871
0.0747981721525
0.0728350854277
0.0754702828636
0.0761865452308
0.0750221380659
0.0744533356891
0.076121726665
0.0744568643889
0.108191225003
0.0835846813157
0.0769738151306
0.0747565890024
0.0746116651304
0.111914587582
0.0738070424204
0.0748691332345
0.104723984806
0.0769649134404
0.0781043297768
0.077945808735
0.0770453210003
0.0758600875797
0.0768926622523
0.108814655972
0.0740795430557
0.0738791284861
0.0770307042296
0.0766615703337
0.0762967377849
0.0808514729014
0.0831242083973
0.106642049609
0.0780909574064
0.0806634207295
0.0804043330142
0.0720702840204
0.0780183092253
0.0734161469823
0.0709708219506
0.0713308686417
0.0712318275161
0.0714976348266
0.0714467038473
0.0710933987793
0.111421141797
0.0745711359658
0.0744733831785
0.0759590581616
0.0758127150017
0.0754684377482
0.0763731032385
0.0747130382647
0.0730666210248
0.0790158900115
0.0769242817591
0.0783409036339
0.103615201056
0.0764880497709
0.0782477230054
0.0788186655156
0.0787151757244
0.077454233889
0.0778281240983
0.0785001233421
0.0779593243324
0.0713675713808
0.0705873350957
0.0702240386125
0.0747902651115
0.0719018776168
0.0744000835642
0.0744336785187
0.0742079113718
0.109325449093
0.0718087487826
0.0717854736261
0.07162984145
0.0724963249772
0.0722383082376
0.0725381482489
0.0762635078303
0.0765853928235
0.0763068291055
0.0759666520747
0.0764936703566
0.0764106916985
0.0759057728198
0.0752713897801
0.0758892314389
0.0701947434954
0.0701947609276
0.0701948257328
0.0701950346959
0.070195715194
0.0701979198961
0.0702050376955
0.0702278230579
0.0703003346834
0.0705306937742
0.0712100757232
0.0719704630285
0.0738613663179
0.0730852170727
0.0722142659906
0.0722331116212
0.113221741603
0.124054391563
0.0705260937642
0.0719319395806
0.0707332607263
0.0723492001597
0.118314931959
0.0702306366337
0.071098719187
0.0700688917497
0.0701395474022
0.119002979589
0.0712373355871
0.0701260643701
0.0700572686336
0.115791301741
0.0704197684319
0.0705258324038
0.0705749129431
0.0706249607695
0.121865453317
0.0705405470111
0.0704810248953
0.116503703536
0.0703518141604
0.0702688186697
0.0702670685948
0.0704952384519
0.0704195014912
0.0705651119132
0.070031638996
0.0702137674634
0.0702287675973
0.0702478587815
0.0702433483177
0.0700792047007
0.121596262682
0.0706243377172
0.0705523610596
0.114031903317
0.0749912285744
0.074848270834
0.0780356086677
0.0778379438757
0.123260742741
0.0763529404278
0.0762171655841
0.117681973141
0.120205871221
0.0768087665036
0.0765404185449
0.0754687350805
0.0751770362488
0.114915605712
0.0703575299027
0.0709302071504
0.0710365513533
0.0710216589119
0.0709171268685
0.0703795929716
0.0705773782174
0.0716049608553
0.0715993042383
0.0715899262217
0.0716199221788
0.0706222392511
0.122349626251
0.0776005961959
0.0774632049545
0.0705707271494
0.0713565210368
0.071351658417
0.0712095110459
0.0712946223093
0.0705197342022
0.117028029699
0.0760365894771
0.0758063112038
0.0773721940289
0.0771653891538
0.121215068035
0.0705986022376
0.0715111881828
0.0715640516864
0.0713956888106
0.0714547099651
0.0705641335369
0.0701948735623
0.0701950360101
0.0701956473441
0.070197403683
0.0702025003703
0.0702169701658
0.0702570859573
0.0703655647351
0.0706444971349
0.0711543855579
0.0714959051624
0.0718312826938
0.0706331584731
0.0702447850364
0.0699808554646
0.071064444233
0.0703207926467
0.0712355051797
0.0700432505965
0.070065401246
0.0702624250731
0.124760075833
0.135910524314
0.0699516256147
0.136648783351
0.144980108883
0.0701151647556
0.0700335026046
0.0699943057872
0.0699722914602
0.0701070749657
0.0701882641527
0.070024153534
0.130162584643
0.0701380384414
0.0701112699093
0.0702801941264
0.070163442678
0.130902769163
0.0699180702145
0.0699858364576
0.0700324881554
0.141031846717
0.0704823547024
0.0703475377354
0.0704491116648
0.0704921817799
0.141562636409
0.0700906970596
0.0702649652421
0.070286314405
0.12679876488
0.0707071675046
0.07060835527
0.0710007421427
0.070925397748
0.133916072591
0.138438431437
0.0710862265041
0.0710205221468
0.0714223714364
0.071235860162
0.143793879201
0.0707362756807
0.0707234406148
0.12746240518
0.0701375060416
0.0703563144825
0.070367036795
0.0702957049704
0.0703352175164
0.0701231269529
0.0702317252115
0.0705229341521
0.0705933591152
0.0704080919036
0.0704665910707
0.0701886184223
0.133413163994
0.0708942512585
0.0707681903207
0.0710919394402
0.071098651398
0.139106139646
0.0704459680436
0.0707178134134
0.0707244885235
0.0706510419464
0.0707017225064
0.0704110372874
0.0704608203895
0.0709050612953
0.0709720656643
0.0707311642263
0.0708987217357
0.0704941266551
0.143495644143
0.0711946362565
0.0711053015535
0.125625060732
0.0784992532599
0.0782386360151
0.0829460482604
0.0826003046223
0.13522090129
0.137416746454
0.0836760297583
0.0832795181283
0.089180847532
0.0886052722107
0.144391286527
0.0801684839294
0.0798380728474
0.129367926764
0.1316831481
0.0808860125892
0.0805086782058
0.0856432660302
0.0853887646632
0.140537625195
0.142157909611
0.0862639371352
0.0859144735852
0.078974664821
0.0787640897877
0.12624371107
0.0706938820834
0.071772729628
0.0718192098137
0.0716398717151
0.0717018716863
0.0706471441375
0.0709797725802
0.0723516859834
0.0723915806741
0.0722780478774
0.0723042573257
0.0709445135334
0.134484993009
0.0822509699692
0.0819875705083
0.0842990835501
0.084019621085
0.13792641371
0.0710716431542
0.0725228312694
0.0725566824725
0.0724195833099
0.0724725680839
0.0710429301784
0.0713437872289
0.0732607485568
0.0734494643362
0.0729719428099
0.0731052888614
0.0712850937914
0.14401115759
0.0881086136802
0.0876446490643
0.0707239815554
0.0719076794758
0.071946082326
0.0718398408969
0.0718595308856
0.0707104600916
0.128400367495
0.0794687411849
0.0791657391179
0.0817026437393
0.0813063386376
0.132604043735
0.0708615391627
0.0721695380891
0.0722438938491
0.072000127404
0.0720780144801
0.0708055722441
0.0710996720581
0.0726641821529
0.0726655102471
0.0725899633528
0.0726353002579
0.0711019820917
0.13995185844
0.0850255171494
0.0846136293408
0.0871928410476
0.0866944059564
0.14284204651
0.0711496134958
0.0728100313683
0.0728814292824
0.0726901141281
0.0727440701289
0.0711212266742
0.0706367231595
0.070618088279
0.0709316687629
0.070910337658
0.0706064723049
0.0706032113485
0.0706117422609
0.0706215299283
0.0708637888575
0.0701956946955
0.0701964742694
0.0701996177881
0.0702076720836
0.0702285608994
0.0702808295267
0.0704060310237
0.0706802921038
0.0706849675321
0.0709028654401
0.0710052680328
0.0709862557341
0.0711493515157
0.0709607298934
0.0710857547424
0.0705017231742
0.0701493800134
0.070150146557
0.070096830382
0.0701645265797
0.0701525185414
0.145701433104
0.152468137455
0.0703391255269
0.0703229155999
0.0703975757353
0.0701859183967
0.148782002531
0.0706727309866
0.0704635509498
0.0706678279846
0.0706900398816
0.149398647961
0.0702601099903
0.0704889639567
0.0705611139592
0.147226752188
0.0717084594391
0.0715152762548
0.0719034231109
0.0719278746042
0.151224785031
0.0718356464946
0.0717357673895
0.147505308711
0.0705964131349
0.071184029941
0.0712318101838
0.0710259116324
0.0711664647574
0.0705119089618
0.0706907057594
0.0712423026116
0.071201613441
0.0712314644316
0.0712427988709
0.0707084785847
0.150911533222
0.0719346988593
0.0718755824233
0.146503172611
0.0906261179542
0.0898662382369
0.097045612072
0.096570884119
0.152006170106
0.0931158229639
0.0926477978747
0.148285341149
0.150117599721
0.0942844555186
0.0936473265705
0.0915289708291
0.0911828660639
0.14696118549
0.0716765946428
0.0740618037485
0.0741487726544
0.0736671700036
0.0738929519718
0.0716097504908
0.0718941198484
0.0754548177841
0.0755987091669
0.07525354243
0.0753372245009
0.0719105849405
0.151565629628
0.0961346769544
0.0957519740208
0.0718001967562
0.0744424867365
0.0745780575935
0.0742089744518
0.0742997574888
0.0717629551984
0.147838952055
0.092214799751
0.0918485548052
0.0953636094508
0.0948950725986
0.150584351886
0.0719239990297
0.0750248277815
0.075174483737
0.0747346176677
0.0748724551016
0.0719026513297
0.0709200830822
0.070922977813
0.0712382543222
0.0712264355997
0.0708790349775
0.0709039218799
0.0708585538631
0.070860868971
0.0712072159922
0.0712348153866
0.0709211611065
0.0709250797551
0.0709380432168
0.0709222672326
0.0712184340462
0.0711985738832
0.0708878845947
0.0708411807598
0.0707945473291
0.070751503469
0.0711407400749
0.0710841806222
0.070702407347
0.0706658459494
0.070199311827
0.0702017285007
0.0702164627284
0.0702132316269
0.0702491243227
0.0702392667401
0.0703137953952
0.0702999827902
0.0704487876817
0.0704327140856
0.0706646537388
0.0708366168353
0.0708922592326
0.0708735647362
0.0706214896141
0.0702721994763
0.0701798628435
0.0704089873139
0.0702478712431
0.0702927638136
0.0702230185997
0.152845158048
0.157333192944
0.0704226568308
0.0705833020816
0.0705820735545
0.070427003923
0.155195579503
0.0706783109085
0.0706679779927
0.0707094797663
0.0706966180471
0.155463194166
0.070417288855
0.0705837129138
0.0705966612995
0.153741752003
0.0720534590126
0.0719290387257
0.072292521734
0.0722423447736
0.156528137616
0.0721229911119
0.0720651552564
0.15411345502
0.0706588674747
0.0712695130332
0.0712968623999
0.0712032935191
0.0712639393883
0.0706494969094
0.0707130816933
0.0713397486203
0.0713440857278
0.0713168817191
0.0713408623425
0.0707057642925
0.156280688427
0.0722270432066
0.0721589066531
0.153137136924
0.0980121494593
0.0975148901674
0.104164156452
0.103788071871
0.15704942822
0.100752628671
0.100354712863
0.154882214615
0.155724395838
0.101568041069
0.101145250161
0.0989341608045
0.0984782827206
0.153421583339
0.0720321375786
0.0761314909817
0.0762657617306
0.0757631178891
0.0759531595259
0.0719844143077
0.0722746605196
0.077791986944
0.0779227287978
0.0775348260193
0.0776653765094
0.0722587629419
0.156774846211
0.103407676703
0.102997765907
0.072097455788
0.076654079638
0.076782719006
0.0764011061619
0.0765297305276
0.0720784444387
0.154514263069
0.0999225881304
0.0994333937525
0.102532043867
0.102024034496
0.156016188602
0.07221183235
0.0772345220527
0.0773911664286
0.0769242706391
0.0770856128633
0.0721957955337
0.0712256867668
0.0708656420881
0.0708563957398
0.0708816277046
0.070875242467
0.0712531626457
0.0712705006381
0.0708981673863
0.0708928905692
0.07092523549
0.0709127841763
0.0712810139322
0.0713332198296
0.0709492207744
0.0709401356098
0.0709580706886
0.0709546587407
0.0713378298892
0.0713424984681
0.0709619918202
0.0709597366577
0.0709581552093
0.0709606092973
0.0713437941174
0.0702119484634
0.0702486137314
0.0702508063256
0.0703265101635
0.0704561038821
0.0706446624635
0.0707830206124
0.0708322564732
0.0708222212563
0.0706568515098
0.0703948671087
0.0702584493783
0.0702643406352
0.0704280165489
0.070312217134
0.0703074389756
0.0702640902566
0.157585223946
0.160693548415
0.0704295550038
0.0706036484725
0.070607529568
0.0704285008917
0.159081611781
0.0707058174503
0.0707046185592
0.0707669086008
0.0707116379679
0.159242125147
0.0704291922833
0.0706208024195
0.0706458524748
0.158343514457
0.0723395325857
0.0723104447672
0.0726016042646
0.0725282338454
0.160073902886
0.0724694976471
0.0723628170126
0.158486292263
0.070700603921
0.0713300975005
0.0713858753651
0.0713448165898
0.071326941564
0.0706932405836
0.0707459869907
0.0713927941626
0.0714155367509
0.0713941929432
0.0713913062879
0.0707272232596
0.159894319446
0.0725089921991
0.0724926098468
0.157847659884
0.104971269004
0.104555659985
0.110873579204
0.110389063788
0.160497017654
0.107625158036
0.1072177768
0.158887965417
0.159424188202
0.108352179048
0.107988007818
0.105975800859
0.105448544005
0.158138575792
0.0723185826936
0.0783466536423
0.0785259661665
0.0780664108997
0.0782015333648
0.0723178165458
0.072569887899
0.0801487682199
0.080346223809
0.079827664176
0.079981897511
0.0725482021806
0.160256653998
0.109971774112
0.109586403338
0.0724184966411
0.0789717846138
0.079144829848
0.0786878820204
0.0788321756338
0.072385748621
0.158664706195
0.106823234365
0.106424779639
0.109178671794
0.108744355582
0.159659199801
0.0724935243421
0.07951981413
0.0796675557476
0.0792875045854
0.0794013650228
0.0724988137542
0.071341707307
0.0709510795096
0.0709559865442
0.0709421911985
0.0709445956825
0.071333921527
0.0713388463553
0.070952979994
0.0709461998292
0.0709825236539
0.0709690947837
0.0713613841448
0.0713975577713
0.0709933404538
0.0709901994873
0.0710000178301
0.0709955683517
0.071392989356
0.0713974084046
0.0710116126781
0.0710065566322
0.0710324249339
0.0710193392247
0.0714026288727
0.0703330424193
0.0703201432668
0.070463560288
0.0706291117981
0.0707486240423
0.0707863797888
0.0707833998975
0.0706686823989
0.0704517257867
0.0703113987427
0.0702511223984
0.0702595747589
0.0704411735299
0.070297686854
0.0702985647506
0.0702553335738
0.160799000942
0.162631322037
0.0704810112254
0.0706689526266
0.0706883247398
0.0704527931159
0.161674541666
0.0707805344727
0.0707818680414
0.0708375721913
0.0707941669588
0.161684323329
0.0704678064612
0.0707144256423
0.0707359193968
0.161120973013
0.0726999561709
0.072618052952
0.0729784932118
0.0728359308131
0.162065490457
0.0728073363067
0.0727511335899
0.161289048012
0.0707848512999
0.0714911079942
0.0714904122302
0.0714252934318
0.0714692210698
0.0707858610437
0.0708398767935
0.0714691629502
0.0715246605699
0.0714490318112
0.0714473187572
0.0708216880703
0.161918066345
0.0727987704885
0.0727722515166
0.160891886178
0.111609970734
0.111272036421
0.116634371144
0.116343063719
0.162531314602
0.113691750044
0.113396155899
0.161630074657
0.161720762378
0.114360830957
0.113999751045
0.11226109303
0.111930955327
0.16099357697
0.0726617962378
0.0807728108753
0.0809310277242
0.0804999994679
0.080635778172
0.072636575552
0.0729350040533
0.082821929936
0.0830077710587
0.0824110613677
0.0826114422294
0.0728927599121
0.162302239235
0.115976649436
0.115537807966
0.0728095522682
0.0814938469827
0.0816273638876
0.0811190050661
0.0813359172198
0.0727962934058
0.16150857855
0.113060171223
0.112629765659
0.115159870742
0.114758788921
0.161797913835
0.0727770218414
0.0820535662932
0.082233663755
0.0817451319138
0.0818827797989
0.072762586936
0.0714358084248
0.07104949063
0.0710411659189
0.0710702204075
0.0710585664445
0.0714493112608
0.0715003864814
0.0710798422194
0.0710763776609
0.0710673965848
0.0710853361227
0.0715039170452
0.0714410307575
0.0710587397602
0.0710534703609
0.0710742520004
0.07106571876
0.0714405004118
0.071519778544
0.0711206457998
0.0710925398794
0.0711140571841
0.0711221911278
0.0715276317826
0.0704961932151
0.070444686035
0.070610632694
0.070706526258
0.0707482655628
0.0707507306245
0.0706699303125
0.0704890582
0.0703448416503
0.0702841004056
0.0702499431979
0.0702525624317
0.0704961061873
0.0705064588848
0.0703033730599
0.0702969407952
0.0702427678499
0.162655116653
0.164202053863
0.0704959020941
0.164425599531
0.166271189837
0.0705546409919
0.0707398921359
0.0707351009782
0.0704978662745
0.0707746293967
0.0707911227805
0.0705183277616
0.163469596716
0.0708113798771
0.0708163871447
0.0708662781062
0.0708105878393
0.163558095098
0.0704954692537
0.0707382466232
0.0707561648815
0.165173495955
0.0709061039488
0.0708846935592
0.0709627576984
0.0709066116681
0.165242280157
0.0705394911585
0.0708144903406
0.0708349341772
0.162719428107
0.0731129174161
0.0730022004381
0.0738936986705
0.073646125349
0.163819847615
0.164770095083
0.0741904401493
0.0740028324091
0.0750881247875
0.0747708851704
0.165363334905
0.0734225924466
0.0731683739143
0.162817922085
0.0715121717543
0.0714669833309
0.0708023399756
0.0708377917807
0.0715954063436
0.0716629743878
0.163718087918
0.0735860344211
0.0734782427025
0.0744798361004
0.0742580321789
0.164894276044
0.0709013441569
0.0717645776565
0.0718037791941
0.0717157988637
0.0717534289298
0.0708940215695
0.0709433950321
0.0718073719224
0.0719091973973
0.0718059081877
0.0718011405453
0.070919465131
0.165313853432
0.0747062378784
0.0745398181323
0.162656241254
0.11722670604
0.116925156406
0.121363560068
0.121101030833
0.164058535973
0.16458261816
0.121948024135
0.121679294987
0.125623320786
0.125146726067
0.165855600054
0.11911530454
0.118833280375
0.163290208305
0.163596377985
0.119582368505
0.119352706521
0.123553720068
0.123342014728
0.165096188397
0.16529065825
0.123913089888
0.123736970139
0.117810164707
0.117520361337
0.162666249872
0.0831901718894
0.0833848567924
0.0730250373124
0.07380031381
0.0861866627087
0.0864326701333
0.0856667631233
0.0859334064744
0.0737219606644
0.16392737134
0.120837967378
0.120484600261
0.122440028065
0.122188284286
0.164674064521
0.0741321180697
0.0871043873018
0.0873005762847
0.0866999666971
0.0869145728007
0.0740775862514
0.0749694412936
0.0896861265892
0.0900168842562
0.0891277629041
0.0893692267417
0.0748498454663
0.165529733431
0.124757736992
0.124480197986
0.163008859083
0.118443280815
0.118102399292
0.120105754937
0.11981958309
0.163637182351
0.0744059016385
0.087980428157
0.0881811762716
0.0875240929903
0.0877594971566
0.0743320979263
0.165011810098
0.123072035428
0.122742527935
0.124267931013
0.12408383979
0.165304216162
0.0746453702604
0.0887242434501
0.0889190692877
0.0883617539081
0.0885402213723
0.0745927700842
0.0730586027659
0.08359209309
0.0837999495721
0.0708079589038
0.0714742978736
0.0715861725188
0.0840021765139
0.0842208385055
0.0732385642538
0.0733437636138
0.0844877559626
0.0846988504947
0.0715955839829
0.0715842064198
0.0708150625826
0.0848814289737
0.085058945754
0.0735207774852
0.0735489090562
0.0852354847617
0.0854292275244
0.0714811577769
0.0710640367004
0.0710992476155
0.0710441597985
0.0710458411149
0.0714654904203
0.0715005259619
0.0710584925018
0.0710442545488
0.0710972129325
0.0710894770735
0.0715614419287
0.071598259928
0.0710987081224
0.071098762572
0.0710857865026
0.0710842255473
0.0715880172295
0.0716078092866
0.0711007620117
0.0710932418123
0.0711344441673
0.0711083192819
0.0716210346576
0.071736708271
0.0711613521098
0.0711534054655
0.0711767045458
0.0711701384328
0.0717430760155
0.0717783623183
0.0711836145908
0.0711802051513
0.0711880745124
0.0711869196335
0.0717919081168
0.0718004323939
0.0711738466972
0.0711853849387
0.0711763779705
0.0711722286289
0.0717946595341
0.0718298179111
0.0712029044305
0.0711814710293
0.0712454115969
0.071235984951
0.0718771870483
0.0708758025374
0.0705976786209
0.0707049707544
0.0707281607053
0.0707259248191
0.0706677413686
0.0705167923842
0.070377281511
0.0703217551387
0.0702953751294
0.070270162564
0.0702670697657
0.0702469252637
0.0702396695453
0.0702326050923
0.0702333714013
0.070232744008
0.0705728072719
0.0702948171223
0.0703043809274
0.0702241949606
0.0703232527076
0.0703461936256
0.0702446793607
0.166476710054
0.166827890269
0.0706088764513
0.0708481125682
0.0708617041133
0.0705856199564
0.16651815706
0.0709784614631
0.070964601869
0.0710039126138
0.0709951095099
0.167015651692
0.0705974795839
0.0708721890523
0.0708861233049
0.166239541058
0.0753898413548
0.075173064204
0.0762646032798
0.0760585624624
0.167264544063
0.0756131864917
0.0754501875488
0.166093306502
0.0709605347135
0.0719350969514
0.0719624926531
0.0719220900001
0.071939352259
0.0709567384494
0.0709863747051
0.0720528301538
0.07205565107
0.072017600941
0.0720645562868
0.0709956330085
0.16737431651
0.0760188768704
0.0757334027063
0.166536115435
0.126252472136
0.125960246191
0.12885451716
0.128773008359
0.166830986587
0.127072595444
0.126885494934
0.166204038041
0.16728296758
0.127833931098
0.12745366093
0.126598089076
0.126472347829
0.166486310413
0.0753219228404
0.0907198982162
0.09092503927
0.0902723886601
0.0905008955757
0.0752541539937
0.0761835279454
0.0931499779166
0.0933671162406
0.0927449193162
0.092935641859
0.0761119952177
0.166997658223
0.128661904336
0.128498461656
0.0755453501171
0.0913894563234
0.091579295946
0.0910895385492
0.0912376984751
0.0754985304602
0.16609042267
0.126787121668
0.126693207407
0.128298934641
0.128075058162
0.167370978533
0.0759699325763
0.0924262458243
0.0925846524724
0.0918680945553
0.0922176127576
0.0758871151641
0.0719364349113
0.0712511712107
0.071247539579
0.0712362694194
0.0712508833655
0.0719421988892
0.0719347980465
0.0712267599554
0.0712276475133
0.071247221705
0.0712290311807
0.0719368478865
0.07205325503
0.0712834527443
0.0712796500804
0.0712865724094
0.0712838904372
0.0720607351004
0.0720389086641
0.0712683509789
0.071280130504
0.0712783195275
0.0712724432197
0.0720453774506
0.0713844314985
0.070676546452
0.0707346640011
0.0707205430538
0.0707213740759
0.0706803532994
0.0706698928313
0.0705694380322
0.070539509642
0.0704255775454
0.0703989244252
0.0703288380301
0.0702789403036
0.0702472107101
0.0702359180267
0.0702384609161
0.0702599232385
0.0706190766446
0.0703705903257
0.0703933694561
0.0702691144585
0.166984211229
0.169133415417
0.0706466847056
0.0708993773437
0.0709114246326
0.070629886106
0.167795017062
0.0710578387665
0.0710347855655
0.071129083372
0.0710583704804
0.167671982936
0.0706374489577
0.0709200227889
0.0709255321336
0.168323043985
0.0766755124354
0.0763432557909
0.0776107962616
0.0774076236073
0.168824231264
0.0770021357352
0.0767938990559
0.168423845761
0.0710681494486
0.072211297571
0.0722059578098
0.0720632515024
0.0721907214964
0.0710625740639
0.0711208453865
0.0722547552122
0.0723366875366
0.0722021138732
0.0722346870993
0.071085854942
0.168208816223
0.0773046819908
0.0770568895053
0.167431701151
0.129196483589
0.12896070336
0.132293494913
0.132211988901
0.169138041085
0.130655945721
0.130587230845
0.168149095634
0.167675405219
0.130789665724
0.130724576609
0.129960523898
0.129608018601
0.168014285607
0.0765230708029
0.0940766426509
0.0943871139638
0.0935831933086
0.0938111598839
0.0764226452468
0.0775472954157
0.096767194376
0.0968879523948
0.0963917899167
0.096629384343
0.0774947248284
0.169079970549
0.132055923248
0.131706873592
0.0769444812021
0.0950599558696
0.0952163433318
0.0946680487046
0.0948865088334
0.0768786498428
0.16838859362
0.130494003702
0.130277887548
0.131167247939
0.130897348366
0.16780852374
0.0772084435258
0.0957724771987
0.0960500047995
0.0953714548511
0.0955481016954
0.0771223505646
0.0720835079526
0.0712951384088
0.0712831812536
0.0713541926075
0.07133905455
0.0721343766124
0.0722222627468
0.0713680885687
0.071362008932
0.0713492618081
0.0713637018418
0.072220302529
0.0722090166787
0.0713442996449
0.0713410247182
0.0713599378087
0.0713535664484
0.0722214143748
0.0722907400189
0.0714166769388
0.0713850534226
0.0714396306088
0.0714345358648
0.0723111802072
0.0707888360305
0.0707215549035
0.0727473545543
0.0720123593198
0.0710639119925
0.0709768829967
0.0744501812878
0.0844071911018
0.0706761956588
0.0707435923134
0.0706920485815
0.0705903676688
0.0704580044222
0.0703609215948
0.070297468059
0.0702650360374
0.0702420913105
0.0702377482223
0.0702522544835
0.0702818854066
0.0706602415002
0.0704177813518
0.0704464219453
0.0702964669933
0.169063113327
0.169788406137
0.0707068519984
0.0709261343136
0.0709332211675
0.07067379385
0.169148115877
0.0711446316915
0.0711192476552
0.0711026549892
0.0711850865261
0.169323807779
0.0706891285064
0.0709176710503
0.0709032916496
0.168523252738
0.0781223876029
0.0776988576945
0.0791244343691
0.0788262156053
0.170138602454
0.0782599478402
0.0782153107734
0.168525630653
0.0710960806167
0.0723869101719
0.0723209562209
0.0723705314479
0.0724249071806
0.0710896786081
0.0711259341336
0.0725856495506
0.0724923267123
0.0723595049196
0.0725755949311
0.0711764770849
0.169927911978
0.0787101219272
0.0782889163374
0.168858641391
0.132398276821
0.132336492067
0.135035740241
0.135007851565
0.170164427078
0.133234252203
0.13304475845
0.168834139787
0.169476960833
0.133739195456
0.133457045578
0.1326136059
0.132490575858
0.168595021124
0.077951659678
0.0974236743393
0.0977225162313
0.0970273348722
0.0972056951468
0.0778139978505
0.0790353633408
0.100181864847
0.100440966831
0.0997211388719
0.0999517063422
0.0789339204154
0.170216567155
0.134853401842
0.134592608106
0.0782505534489
0.098331391455
0.0984333452174
0.0980509487179
0.0982200465334
0.0782434984365
0.168606772568
0.132899543429
0.132761106709
0.134328919507
0.134044728741
0.169658866807
0.0785857928306
0.0992341144807
0.099489915115
0.0985878917039
0.0988940893962
0.0784206358308
0.0724062389466
0.0714494152007
0.0714473912798
0.0714064928004
0.0714344009169
0.0724242328859
0.0723376804793
0.0713745498253
0.0713795413406
0.071405245781
0.0713808765771
0.0723179943807
0.0724601955999
0.071557229754
0.0715013719394
0.0715774963575
0.0715794460854
0.072536280532
0.0725689750753
0.0714795410858
0.0715525224238
0.0714136006319
0.0714295570202
0.0725217884105
0.0707735961732
0.0707710491436
0.089124850316
0.0869883632821
0.0707593415087
0.0707643090682
0.0880883171996
0.0708570198564
0.0708843895825
0.0706813220406
0.0707327376624
0.0840689386326
0.0708103834051
0.0707641699318
0.0866091411267
0.070710670678
0.0707381536128
0.0707671985925
0.0707614070088
0.0707697039534
0.0707796359762
0.0887953092304
0.0717487318418
0.0718001407726
0.0708480468339
0.0708467517113
0.0878188307876
0.0708059186807
0.0707978335986
0.0707595018352
0.0716656098995
0.0716952165248
0.0884015854591
0.0709816583281
0.0709662609496
0.0708774153973
0.0708666847591
0.0709474619079
0.0709283114813
0.0875562778858
0.0716638402676
0.0716571070583
0.0716089272577
0.0716454934126
0.0872855439655
0.0707537389797
0.0707872653126
0.0707825724205
0.0856882755196
0.0708178507879
0.0708355245647
0.0708536670263
0.0709420353934
0.0709260229349
0.0709293565704
0.0709484647864
0.0708575951397
0.0708154030856
0.070827424312
0.085432449359
0.0707827566945
0.0707862995699
0.0707973062162
0.081615522535
0.0707791751649
0.0708297579402
0.0707809068781
0.0707737335766
0.0707770052807
0.086232020817
0.0714910432864
0.0715392003872
0.0714849215442
0.0714683320494
0.0859447529499
0.0708991520352
0.0708695691736
0.0708280775443
0.0708101205097
0.0708521798884
0.0708805464507
0.0851593533278
0.0714608739476
0.0714832361093
0.0713364650173
0.07140889849
0.0848328418241
0.0832350096542
0.0708813929997
0.0708038845127
0.070787849794
0.0707747040178
0.0707947132365
0.070889917929
0.0708759711556
0.0708284247537
0.0837921232053
0.0713222932849
0.0713064689989
0.0708209857017
0.0708500881877
0.0708114852205
0.0707925919125
0.0707243948923
0.0812398472532
0.0706948277018
0.0707088640991
0.0706958198186
0.0707964085361
0.0707356895586
0.0706973344235
0.0709762460887
0.0708937455557
0.082879369178
0.0708178510697
0.070857166446
0.0708403370639
0.0713581738792
0.0713648997346
0.083525207181
0.0707823377232
0.0708025316009
0.0708056565899
0.0708473339128
0.070859610992
0.0708664161721
0.0824523489551
0.071324216282
0.0713393484522
0.0714300922777
0.0713497741947
0.0820084620072
0.070837776949
0.0708899085663
0.0708923907408
0.0794174174486
0.0708907918329
0.0709936056933
0.0708569377348
0.0708546919266
0.0709185868853
0.0718049255151
0.0712865888525
0.078267160705
0.0706816227323
0.070705240649
0.070718886451
0.0708030232805
0.0707480234184
0.0707118147608
0.0808135537037
0.0716890687964
0.0715848528156
0.070946742494
0.0708777935566
0.0709835095637
0.0721195186956
0.0718964757548
0.0802531611711
0.0711165050715
0.0712365780809
0.0709693526854
0.0709113872959
0.0712683837824
0.0712395164134
0.076680929679
0.0729518398463
0.0724461137317
0.0894063386434
0.0707552725003
0.0706329180591
0.0704881131577
0.0703785706021
0.0703159422301
0.070274548216
0.0702571850734
0.0702459930852
0.0702470085897
0.0702739499065
0.0703184747336
0.0707268793648
0.0704841551524
0.0705060581999
0.0703353521854
0.169326483096
0.170608211233
0.070729997611
0.0709011548774
0.0708716092942
0.0707322939075
0.17097212408
0.071150912183
0.0711101170003
0.0711253652854
0.0710915014748
0.171017328514
0.0707326277926
0.0708331515792
0.0708455226067
0.16925901891
0.0793790272435
0.0791935867126
0.0807128987063
0.0803218051507
0.169534235037
0.0798578259854
0.0796088451562
0.169769584256
0.0711769708558
0.0726733768505
0.0727241076075
0.0724738067647
0.0725376924522
0.0711685169816
0.0711003330102
0.0727227054007
0.0729945501324
0.0727052087118
0.0727132876568
0.0710857596806
0.169717452974
0.0802702497131
0.0799232336599
0.169129477341
0.135006218677
0.135030810638
0.137119090999
0.136768231895
0.169902073598
0.136114641631
0.13597135338
0.170741768129
0.17082806169
0.136454405718
0.136291248911
0.135093105353
0.135005391305
0.169093309891
0.0793042599489
0.100919177914
0.10109146225
0.100649433961
0.100792790154
0.0792527954612
0.102823393179
0.102959666331