/*--------------------------------*- C++ -*----------------------------------*\
  =========                 |
  \\      /  F ield         | OpenFOAM: The Open Source CFD Toolbox
   \\    /   O peration     | Website:  https://openfoam.org
    \\  /    A nd           | Version:  8
     \\/     M anipulation  |
\*---------------------------------------------------------------------------*/
FoamFile
{
    version     2.0;
    format      ascii;
    class       volScalarField;
    location    "1.2e-05";
    object      T;
}
// * * * * * * * * * * * * * * * * * * * * * * * * * * * * * * * * * * * * * //

dimensions      [0 0 0 1 0 0 0];

internalField   nonuniform List<scalar> 
49986
(
350.000000093
350.000000319
350.000001294
350.000005294
350.000021763
350.00008961
350.000369179
350.001524349
350.006299445
350.025974569
350.106621613
350.048195524
350.097537689
350.21835734
356.560341844
350.706736178
405.471355811
368.396780602
359.844419416
350.405203214
360.092732869
351.266230702
352.715995309
350.951757675
351.856854414
374.371029328
364.679521709
350.130842221
353.52072905
364.377384712
373.738842031
352.85541725
363.929095042
355.697668223
385.771324011
369.780095563
350.938246402
349.123894366
350.775816078
369.28947765
358.859926123
361.473304219
360.291282757
354.658736684
351.981248148
353.931753938
358.722388267
368.872085493
379.401748093
360.147988306
367.794039321
362.137872874
350.228346349
366.153858236
352.43089815
355.608602242
352.838234715
351.407398202
359.454555902
354.948100165
359.167003582
370.51836844
351.461199404
356.738329487
354.881389515
359.206034358
355.299446849
360.729934899
361.913736874
359.660414832
358.657876286
361.791197437
358.832912409
403.150480943
375.927528759
365.145845491
347.532448508
348.161921981
368.440700508
353.166471294
355.88142436
374.783656499
363.588041591
365.730064358
365.436507671
363.748289489
361.592516543
363.43143821
372.748536123
351.523192464
352.04871809
363.643091256
362.896331723
362.190212626
369.831224222
374.545919227
395.893944082
365.84819321
370.516477284
369.911457785
353.914176472
365.860737391
356.525613599
349.692177842
348.42952115
347.799140442
349.551802216
349.053251196
350.212486459
369.043284917
348.870063811
349.530806185
361.455154637
361.151419765
360.476471839
362.592076846
358.171656027
354.58688759
367.08869691
362.803879829
366.260583329
376.987957953
360.205150107
364.453740798
367.154332149
366.937908236
364.513767071
365.260037835
366.52958874
365.550136397
352.370474246
350.793910722
350.059339176
359.323352845
353.451776574
358.474780807
350.297786361
350.874016543
371.241151058
352.831752883
350.95081848
350.19036083
353.174149073
352.235487703
354.390293075
362.130134037
362.753083038
362.279521225
361.483648659
362.525443453
362.369032884
361.415577228
360.228978639
361.339464153
350.000022563
350.000057516
350.000187404
350.000606201
350.001969967
350.006388373
350.020654928
350.066343985
350.211880568
350.674826885
352.038666451
353.571517403
357.479406455
355.87527187
354.234958515
354.123816867
368.241509824
381.180742745
351.216188792
354.033782861
351.70672332
354.693510979
372.242144546
350.253620363
352.461963657
349.189571653
349.880387981
373.002056726
352.542621705
350.397156239
350.10632975
369.482794092
347.510699056
348.47197639
345.865100382
346.407522126
377.710200274
347.007055936
347.441317838
370.095024125
350.674394428
349.332865833
349.071239474
350.434348504
349.910165417
351.286245593
349.275418934
348.289882468
348.10850862
348.836972197
348.603824485
349.590613842
376.85203827
346.550158085
346.856713063
368.443305167
346.465634476
346.766960627
344.978339347
345.037464809
380.04822809
345.213445266
345.501883674
371.441608574
374.166129363
344.950291562
345.089701862
345.920416029
346.01350681
368.898581606
347.599440625
346.030734499
345.946468625
346.962407096
346.328042357
347.837172038
345.979901865
344.473171972
344.322588574
344.826829127
344.698877593
346.237012233
378.69473278
345.058623057
345.109840393
347.209919637
345.598868387
345.366340398
345.898348134
345.761202104
347.317226571
370.657620863
345.628648551
345.785702998
345.209009933
345.068002728
375.781213836
346.606668236
344.935618229
344.914746983
345.222864756
345.006929935
346.684193541
350.000283122
350.00060871
350.001833622
350.005352718
350.015564875
350.044559357
350.124945093
350.342200763
350.898650963
351.924623321
352.651086865
353.354497085
351.060327566
350.637950739
349.821244115
352.059292184
350.608816647
352.21952628
349.98750255
349.997180181
350.342737874
382.29268929
400.885239155
349.845775018
402.13303606
418.638127975
349.875027127
349.904154206
349.701101302
350.045231159
349.518462875
349.578771095
349.837189197
391.0757869
348.92174558
349.137938235
348.795551896
348.858447107
392.238987564
349.833063223
349.468955557
349.47174512
410.285529083
348.871099342
348.838121284
348.647056921
348.810654426
411.256901285
349.886919471
349.564087002
349.49812043
385.751959944
345.651841133
345.814609042
345.310484478
345.338409792
397.546190504
405.753230121
345.229386789
345.283250582
344.824875222
344.930482256
415.815111697
345.312518199
345.583136321
386.861617897
348.997394663
347.744471135
347.569757063
348.022531044
347.891177675
349.043640776
348.779427978
347.379504569
347.381491117
347.49673384
347.403999906
348.775909062
396.5605341
345.340665105
345.301668093
345.015617216
345.198444099
406.923770443
348.875594282
347.183589293
347.053284883
347.351870952
347.285338568
348.884543896
348.662184901
346.26114332
346.16933103
346.924995647
346.366238152
348.752476538
415.018119807
345.005875932
345.006207171
383.753520833
344.993385022
344.943117798
347.712932509
347.495963875
399.693922692
403.545744054
348.208894769
347.909309322
351.358480578
351.087708347
417.456018754
345.821765434
345.646956415
389.824546573
393.46438895
346.282328218
346.029740962
349.391518536
349.265489759
409.348447131
412.362334861
349.715665502
349.516703563
345.137005498
345.07421778
384.772349914
345.712856082
344.28566213
344.290564979
344.315302414
344.295629792
345.751477478
345.327324442
344.626825209
344.647114087
344.600405942
344.595425115
345.324902539
398.543079727
347.292025881
347.182372121
348.625531773
348.470711155
404.671810834
345.254916731
344.756038489
344.780653791
344.653853364
344.705466779
345.267554563
344.809134086
344.920057237
344.942832855
344.913420702
344.91733585
344.855914753
416.547267172
350.844288035
350.591350232
345.414371023
344.290227684
344.245035716
344.283499704
344.287449869
345.480306793
388.314340829
345.362717053
345.170911917
347.005666941
346.647114095
394.994165537
345.337777168
344.478389184
344.579352342
344.268265258
344.343648952
345.306394664
345.101476672
344.82777621
344.795045102
344.805840853
344.830525728
345.15775073
408.266958181
349.033489926
348.778804887
350.310399469
349.973358078
413.745856044
345.04246487
344.934117429
344.943645731
344.825030313
344.88376697
344.992057513
347.570265167
347.534635192
346.145366543
346.158338838
347.500708002
347.46924676
347.357008701
347.201310365
346.610180911
350.001927893
350.003490268
350.009788253
350.025925189
350.06777724
350.172496231
350.423218828
350.971898037
350.980583413
351.416797079
351.622006226
351.585608004
351.920159578
351.549882288
351.852423322
350.712868293
350.113436793
349.892005561
350.010864489
350.096566937
350.102414228
420.137472221
438.333240183
350.147459291
349.490923525
349.558408867
349.917927332
428.113887407
348.974701118
348.670129371
348.719400097
348.953135312
429.370688162
350.024620887
349.663384561
349.680183239
424.685454422
344.820349179
344.868826263
344.038595949
344.293137915
435.233303233
344.634413772
344.740079608
425.405612548
348.877062049
346.238581483
346.116663482
346.218447765
346.287073743
348.744400702
348.800102913
345.722883862
345.487844966
346.056707851
345.805858531
348.910712612
434.250623568
344.385900945
344.612238253
422.233834068
352.190543539
351.704894592
356.405588412
356.051168811
437.252404712
353.489247526
353.226942773
427.087662316
430.974697394
354.125482994
353.762580685
352.68322051
352.573467036
423.862588523
344.869092059
344.878262384
344.790121562
344.972220747
344.992260405
344.881484131
344.095992297
344.026878475
344.016222918
344.115234653
344.05065152
344.191873081
436.19388213
355.72242997
355.420234446
344.648215755
344.495255697
344.381217452
344.600788958
344.513741395
344.66435909
426.175831696
352.969461316
352.801390078
355.094917459
354.651079394
432.896709686
344.464969104
344.232243844
344.20157452
344.372923748
344.306879028
344.550136091
347.615027851
347.697600286
345.89659279
345.636009974
347.42654753
347.507864042
347.323230794
347.36337447
345.55760721
345.983165193
347.773315772
347.835045486
347.90161379
347.92205622
346.155578054
346.179961781
347.920008916
347.872453662
347.819175452
347.765585839
346.305674538
346.270734097
347.685475389
347.622489715
350.009172446
350.01401667
350.043534648
350.037061627
350.108959407
350.089219805
350.238489523
350.210846548
350.508777189
350.476653168
350.940638369
351.284190762
351.396043367
351.363057372
350.87760465
350.259348863
350.148047867
350.19566721
350.209499159
350.247185865
350.231632286
439.387978214
455.080012795
350.076475924
349.633756473
349.545966732
350.170617713
447.273176949
348.483587527
348.648533129
348.224393177
348.431943358
448.139114083
350.111647996
349.440179524
349.364829867
442.548436556
343.93796526
344.001441036
343.678813194
343.757827782
452.072905356
343.848275225
343.923278155
443.77248375
348.509432322
345.289293956
345.201019118
345.431182857
345.32091004
348.551279144
348.29900873
345.000355528
344.857142766
345.173764845
345.060526821
348.37135726
450.902164411
343.790373295
343.831515601
440.420077763
357.155048453
356.744161437
362.789443721
362.409514278
454.23881443
359.602019087
359.297905139
446.282978851
448.97900908
360.296480305
359.919404976
358.011786455
357.596026346
441.453681882
343.971353797
344.087629776
344.082039145
344.010563338
344.036764113
343.987981682
343.695285126
343.987642671
343.995485775
344.039305863
344.01178115
343.72683448
453.277297376
362.059054832
361.65953446
343.882283225
344.028117619
343.985204657
344.085927571
344.072484308
343.909147206
445.103384338
358.937526562
358.475891965
361.17360906
360.712828842
449.897408934
343.822220857
344.028269053
344.044152907
343.962334474
344.001752018
343.837312054
345.404725615
347.245348527
347.27046601
347.153699818
347.203508255
345.375709475
345.25643577
347.10294572
347.125631082
347.065463986
347.088167016
345.233195983
345.151001809
347.001129423
347.034053441
346.905205953
346.954764847
345.113948093
344.94907271
346.796955505
346.844958159
346.687437035
346.740468761
344.901779292
350.034475851
350.107847373
350.112332057
350.263927289
350.523356193
350.900563858
351.176968954
351.275604835
351.257082262
350.932959625
350.439883716
350.228180529
350.257223882
350.025488532
350.223088059
350.165727388
350.238461376
455.849894813
469.168899736
349.849273543
349.273153372
349.166512703
349.97126534
462.421231494
347.925824327
348.138821099
347.776624181
347.875827792
462.978227017
349.908694106
349.09014865
349.033889113
458.54492186
343.603451643
343.671702003
343.618095201
343.56189013
466.076265453
343.648571149
343.588391505
459.756895562
347.98757303
344.603204879
344.594492137
344.818208111
344.637733274
348.053502092
347.803006942
344.405040727
344.373117354
344.582588162
344.451232196
347.84797289
465.12601502
343.58005318
343.663504796
456.637591153
363.617280279
363.201365194
369.878804408
369.316122134
468.348812837
366.391189876
365.951684218
461.804363923
463.589605473
367.115544048
366.761311851
364.546687307
364.063293876
457.521916413
343.59852414
344.065064369
344.097818113
344.048832266
344.064434159
343.639240049
343.585213646
344.382967229
344.520388308
344.254741171
344.293294561
343.56529267
467.230066043
368.736658648
368.253624071
343.592007016
344.127766974
344.228342633
344.110787259
344.114266928
343.579758734
460.963223728
365.532949832
365.06210978
367.845995345
367.466824318
464.310058558
343.590795306
344.25589129
344.248334336
344.28967794
344.288079321
343.651443654
344.762974197
346.574636023
346.631856199
346.447268281
346.502699951
344.69846964
344.583795737
346.381747646
346.404900248
346.342766035
346.36117937
344.588245488
344.5540729
346.284876367
346.311917724
346.203913774
346.243884806
344.503582233
344.387302251
346.127122525
346.158285904
346.08977086
346.1022078
344.378961884
350.27661397
350.251155043
350.538170261
350.86936471
351.108076529
351.18366112
351.178109787
350.948217881
350.520597026
350.282631118
350.204171692
350.205188995
349.806496812
350.091052783
350.025449586
350.167715247
469.740310298
479.007047932
349.676861282
348.971884273
348.905676064
349.764186781
473.739228277
347.568278382
347.746826975
347.446035394
347.532825796
474.248336142
349.718197417
348.852655914
348.789524096
471.157108541
343.628953019
343.610078548
343.687492717
343.619419911
476.916376667
343.716913099
343.684157953
471.756554406
347.629673836
344.344279211
344.252265391
344.361975668
344.32912244
347.701491689
347.500970338
344.085556893
344.122337747
344.148247717
344.07448187
347.51980059
476.198761374
343.597671836
343.626576553
470.207038182
370.646990869
370.30765528
376.24002915
375.908351937
478.438652916
372.846776579
372.479381001
473.21487047
474.823850683
373.646143629
373.214845971
371.244901925
370.945990032
470.670503209
343.604231965
344.599889869
344.63295423
344.56815134
344.587041469
343.604336791
343.697321444
345.488795747
345.595559931
345.227104552
345.339484
343.681851641
477.717143321
375.487915431
374.983677999
343.741304747
344.934554961
344.982978188
344.706100566
344.855749851
343.736840867
472.544541387
372.06600263
371.583375046
374.567946884
374.114162457
475.496735382
343.598545418
345.098422967
345.165986822
344.998610285
345.039030828
343.600040794
344.33883442
346.054184881
346.075029075
346.007713478
346.026487145
344.328065634
344.339315852
345.946090966
345.979666952
345.83132541
345.910492479
344.317465769
344.11073091
345.747985224
345.768047131
345.707846301
345.717993728
344.086430159
344.151749624
345.735643305
345.713822906
345.644944356
345.709713187
344.1532602
350.601813033
350.500259511
350.832140455
351.023847645
351.107358865
351.112420464
350.949679095
350.587782572
350.321432711
350.241195132
350.18275057
350.126668259
349.618915312
349.361978511
349.962232822
349.880415856
350.07795815
479.496977885
488.666272523
349.409792816
489.342655726
496.867101835
349.255480789
348.699069983
348.59190032
349.557847967
348.404457698
348.354401928
349.31872791
483.764012993
347.175382698
347.332444664
347.057407851
347.122160472
484.129130334
349.476852683
348.509312422
348.449484829
492.232822376
346.944747615
347.055976086
346.854284048
346.885462188
492.765997717
349.285690896
348.326956981
348.293716372
481.043501343
343.622143731
343.660276228
343.660031581
343.624416763
485.779689909
490.309446129
343.714307093
343.725275506
343.745020275
343.636778941
494.457626732
343.77764486
343.631229737
481.719910346
344.071631051
343.949480057
347.258455606
347.064756806
343.974286165
344.01291124
485.16213734
343.65048111
343.77770328
343.68318406
343.698811257
490.69892268
346.99119939
344.059314207
344.032773196
344.091863729
344.077913095
347.033634777
346.859454746
343.929908533
344.022207737
344.021396498
343.951051856
346.866933392
493.988569408
343.656035395
343.686424975
479.971853162
376.899851376
376.561447985
382.391203178
381.910715488
487.739535811
489.752729048
383.06693007
382.775043454
388.014307162
387.429525738
495.90507409
379.312891065
379.005213833
483.236540446
484.415912572
379.813963566
379.563988981
385.008988081
384.630409892
491.663863829
493.206525894
385.667760102
385.345475879
377.644075729
377.260319456
480.470036898
345.686183219
345.788557823
343.640703091
343.624299296
347.909885351
348.131897414
347.465539617
347.673596096
343.620711546
486.643664958
381.349749355
380.823393757
383.602821345
383.332101008
490.017013292
343.729469394
348.679669959
348.815054656
348.36761597
348.541187423
343.744789952
343.687456956
350.676712744
350.978364459
350.219515214
350.403435756
343.638153237
495.083266591
386.964259288
386.599835996
482.515906947
378.548939186
378.056512942
380.391130208
380.073951993
484.727598995
343.674153745
349.27058792
349.446584267
348.966615992
349.122169653
343.68615231
491.157749252
384.263188834
383.914448469
386.281713505
385.970152224
493.597053285
343.664074137
349.908648102
350.064634405
349.603774951
349.758974715
343.678184701
343.616790656
345.923002367
346.075279531
347.216471446
343.957227495
344.093367935
346.233083796
346.433350104
343.658496434
343.738519077
346.693036306
346.858151005
344.090069756
343.985057141
347.090007278
346.974296838
347.085348648
343.749158149
343.686794704
347.19286611
347.307950192
343.993895068
345.444445631
345.557448562
345.359490847
345.380740826
343.95329248
343.992263427
345.373064006
345.354176093
345.403705617
345.40665286
344.076935224
344.071923373
345.360064754
345.383212299
345.281958048
345.301348187
344.016484267
343.961305683
345.24497978
345.259076172
345.266672221
345.233092944
343.957818797
344.103659818
345.298812093
345.297731949
345.275583215
345.291314747
344.092834209
344.045344094
345.231646808
345.254493919
345.181139791
345.207053803
344.035860477
343.989761888
345.105285129
345.151225604
345.066932414
345.080442003
343.961132045
343.939254973
345.072530498
345.051649163
345.112847857
345.114639597
343.997407728
351.354654596
350.805607231
351.020648576
351.066997542
351.062722733
350.946166352
350.642511223
350.367415669
350.255327002
350.225791819
350.177369748
350.204702349
350.163320088
350.145576543
350.106567116
350.027062001
349.966347142
349.212958435
349.796726909
349.736199313
349.974580865
349.714518817
349.692867131
349.958624298
497.66517326
503.670547704
349.094859056
348.246372668
348.198651142
349.17926167
501.044117363
346.662841637
346.799962642
346.490587771
346.64685362
501.721400691
349.127805223
348.152965445
348.114480259
499.239677019
343.703521964
343.739677581
343.706959286
343.784653534
502.82183848
343.680203392
343.688450694
499.571158484
346.674509154
343.946639262
343.950195264
344.018669782
343.975030186
346.717623577
346.512346556
343.967286304
343.883271977
344.042598153
344.043145717
346.599459863
502.667822741
343.859667989
343.76300078
498.372701925
388.91760548
388.476219148
393.39344263
393.111270758
503.097755326
390.710736595
390.476749417
500.499744536
502.169903222
391.606678309
391.138233552
389.774375394
389.395385929
498.903982912
343.715074525
351.509768095
351.705286494
351.167194556
351.32835296
343.731367956
343.71387399
353.489509305
353.665961479
353.221449853
353.337310741
343.736841773
502.909040636
392.832851568
392.533051502
343.660395162
352.085548193
352.240960233
351.839716747
351.962104447
343.674585246
500.018781146
390.282569374
390.050686862
392.221119939
391.91732631
502.442600379
343.914108246
353.062909411
353.145339042
352.529662624
352.911115301
343.905353743
344.013355638
345.066651966
345.094152174
344.977573443
345.035535763
344.003213786
343.928558074
344.925143234
344.944720678
344.93605493
344.915104246
343.921374687
344.083367701
344.986451217
344.991447351
344.924437152
344.962855494
344.07423802
343.914455669
344.819912572
344.868476863
344.771483889
344.797298873
343.900875812
352.350789785
350.96146344
351.078994692
351.050736911
351.053314887
350.971351363
350.950901548
350.750224133
350.689503742
350.459911968
350.404932043
350.263717291
350.17542691
350.138168456
350.129991288
350.085520802
349.952362178
349.056622558
349.673887573
349.654411564
349.942178535
504.554984114
512.048643017
348.944962532
348.078730648
348.042271959
349.017245869
508.214512677
346.362846141
346.474980567
346.270978838
346.301917276
508.410108088
348.972936881
348.001957725
347.960760877
507.095749667
343.918504619
343.702432618
343.953440574
343.967703863
511.059489078
343.899806479
343.988593155
507.626014276
346.447078697
344.066290253
343.956063757
343.872792544
344.054395011
346.48136277
346.295341633
343.919414057
343.991272789
343.92118074
343.918636898
346.297683699
510.104858143
343.939012007
343.883862399
505.566900974
394.085137415
393.701560172
399.142426634
398.927518014
511.854676518
396.526800262
396.275333652
508.135159113
508.890585831
396.969329588
396.762268615
395.083546673
394.613972186
506.467016192
343.76911362
354.341988443
354.686872009
353.845594542
354.060945788
343.713521648
343.964454413
356.752481362
356.834442692
356.395280798
356.641084417
343.991337386
511.581122686
398.657433224
398.168165956
343.935361332
355.242478467
355.353813871
354.955431232
355.126466594
343.984017373
508.024642539
395.964547821
395.530753861
397.509145516
397.181807051
509.431741844
343.915812988
355.813810548
356.048006167
355.480205976
355.626607279
343.886692115
343.884045459
344.759537517
344.753602935
344.851854415
344.832957084
343.964895006
344.062793653
344.834256242
344.851157317
344.715888476
344.790662113
344.029069415
343.921758178
344.664785952
344.67564939
344.643593493
344.656963248
343.925726524
343.959295978
344.707385012
344.661238282
344.705803228
344.715724104
343.970387804
351.180269347
351.04391016
354.950674891
353.560453515
351.717872308
351.530795502
358.093702098
373.832633989
350.960069333
351.096749408
350.994013993
350.792114782
350.527417213
350.329025943
350.201936758
350.151055352
350.125015439
350.119084287
350.087308045
349.931679588
348.913624555
349.633868567
349.631998004
349.932566904
512.231569154
518.56575251
348.856709083
347.905685176
347.877101519
348.897269305
514.761272689
346.05521574
346.174547766
345.693854816
346.096120507
515.046359986
348.871894486
347.791388165
347.726452162
512.898175834
344.205659828
343.963268646
344.109588501
344.176266941
517.081247993
343.999636362
344.195976078
513.473003514
346.007363641
343.903933034
343.653621173
344.026381428
344.037222725
346.041079506
345.793952343
344.045513504
343.691770574
343.686828063
344.050618936
346.012548111
516.298711494
344.196195637
343.961368034
512.366416991
399.564286704
399.331295063
404.552971734
404.092683657
518.354171572
401.398455203
401.154680827
514.327673142
515.300969451
402.074631367
401.690171514
400.310434964
399.873160152
512.489962899
344.075588579
357.240643483
357.575580349
356.924523282
357.051864278
344.004006209
344.10801837
359.49248512
359.798632981
359.184931018
359.316820263
344.141506377
517.819899473
403.629241159
403.232686433
344.070680256
358.098465683
358.149252552
357.918379128
358.045522831
344.134434703
513.915909869
400.936723535
400.686614617
402.844005399
402.463963666
515.669646905
344.169694956
358.88805762
359.060091957
358.258452715
358.565884827
344.050608217
344.064112223
344.667783678
344.693647877
344.505591376
344.608196008
344.073390272
343.763841794
344.355972449
344.40284922
344.352406006
344.339177296
343.684190227
343.876346995
344.638351231
344.517011507
344.634017901
344.662826852
344.002584482
343.950484345
344.347168946
344.549454462
344.129433604
344.207603089
343.799470382
351.152343779
351.139550456
380.378278578
377.520979281
351.032927231
350.999770179
378.980504069
350.528602327
350.491256164
350.965811393
351.071757942
373.346395844
351.174617416
351.056843236
376.959568446
351.030080642
351.085935722
351.139861399
351.093601492
351.119613833
351.157356608
379.916222927
350.600141188
350.636204925
350.634089844
350.537352343
378.642101036
350.831873892
350.848204318
351.005737878
350.593581418
350.57362021
379.377001482
350.11615006
350.129312853
350.503204564
350.515627416
350.142059485
350.159173387
378.306473426
350.725765527
350.64629947
350.720992288
350.734544231
377.942116048
351.005132451
350.86119397
350.882967649
375.724413941
350.685248598
350.636706485
350.623902088
350.314920478
350.319600493
350.199132535
350.293949708
350.597677599
350.80904685
350.744787931
375.369082626
351.165094199
351.157711765
351.183366914
369.630076748
351.139797292
351.217411252
350.911283689
350.932520236
351.093070135
376.444082416
350.646752886
350.652090109
350.772561992
350.665176468
376.068186997
350.310311669
350.313517174
350.647510808
350.646311745
350.316486768
350.417660266
374.96202929
350.814044425
350.812521759
350.728812684
350.776151362
374.459481635
372.108322184
351.07559009
350.825287122
351.127535254
350.966107265
351.035170479
350.482230984
350.489713571
350.769977618
372.936607342
350.797761406
350.728943726
350.785775477
350.487472191
350.483867413
351.150660582
351.022525817
369.077686695
350.998148517
351.026142339
350.999076777
351.185430938
351.066839218
350.999226712
351.414706257
351.139497067
371.566264468
351.111000443
351.210215346
351.247059243
351.013613402
350.958361457
372.540103272
350.471571146
350.535371919
350.860674144
350.982014741
350.709221882
350.790952532
370.891226344
351.084636344
351.050722826
351.45912392
351.216479121
370.213912325
351.256414974
351.297745919
351.323001638
366.367942767
351.300077931
351.482155265
350.828519435
350.881902824
351.215248369
353.11305287
352.076448595
364.633683351
350.967764453
351.003927371
351.035530468
351.16703208
351.0554543
350.996036946
368.450458292
352.196764205
351.853734841
351.31118337
350.980372631
351.233151913
353.368566084
352.757147733
367.614157012
351.548742132
351.852147636
351.455363297
351.339244964
351.949350829
351.929815053
361.992529314
355.235707132
354.176300371
380.751794781
351.115246119
350.876999197
350.588260566
350.36693844
350.237221319
350.157977444
350.139824922
350.130711066
350.127749739
350.099899012
349.941101902
348.84012532
349.633906972
349.602201878
349.934323797
518.671248795
524.250119854
348.674223643
347.676162241
347.552124803
348.794219045
521.767252212
345.608408261
345.675431876
345.339822131
345.401561355
521.835426461
348.73203893
347.404656242
347.35843299
519.793483489
344.054246058
344.098162503
344.648457538
344.302211857
521.431074774
344.484311681
344.324012214
520.473867256
345.734563705
343.866560323
343.88266724
343.619016661
343.614311642
345.758360388
345.332029402
343.43340738
343.728390215
343.736450253
343.486993609
345.330255076
521.305094646
344.381726093
344.44835439
518.920995551
405.22647817
404.934811734
409.131599527
408.642877589
523.091581757
406.622008924
406.534507371
521.55870561
521.7185937
407.101527458
406.772615634
405.729071598
405.475131686
519.300120133
344.036604983
360.331358965
360.491921768
360.065303961
360.214139826
344.068081826
361.710983968
361.832130816
344.234918627
522.019377916
408.26160536
407.976517717
344.493000175
361.307900891
361.236565006
360.960785472
361.29976736
344.517181445
521.135741835
406.440217882
406.161262654
407.750642508
407.468367602
521.416250631
344.446517144
361.45348794
361.584942051
361.182557074
361.254124787
344.436407124
344.305772112
361.973301093
362.260024067
351.114087102
351.059522178
386.20062786
343.562539698
344.083182743
344.092652883
344.276539636
344.120086763
343.554909444
383.721514077
350.949651581
350.896488905
385.23599984
350.164361535
350.052550383
350.993221813
350.962869614
383.406872143
351.062113098
351.01360016
351.067673787
343.952250085
344.446083175
344.450764047
351.023682933
351.04201152
351.076749339
385.899299736
350.414950034
350.352989775
350.235477989
350.182933356
384.811265638
350.595710986
350.629421962
350.916066763
350.444213044
350.442445076
385.58215112
349.494109329
349.573753548
350.091953591
344.307870314
344.408144503
343.930358149
350.468235604
350.425193899
384.028979953
350.933882701
350.665918806
350.695131604
350.141539478
349.629398495
349.65417486
382.177786455
350.362409138
350.294566128
350.219553078
349.718219933
349.758108339
349.673647815
349.693203888
350.200080666
384.365707551
350.4007639
350.411853573
350.47182527
350.376118838
381.750733743
351.096615779
351.056849096
351.067489628
350.724122596
350.760681224
350.975467932
383.066518412
350.547241895
350.531432334
350.491839545
350.535705236
382.677572392
349.854758856
349.888565575
350.330673872
350.631557187
350.59303353
381.090378874
343.638495207
344.015114446
344.115208496
350.984021016
350.785876796
350.80792879
350.348946163
349.906765931
349.921048334
349.93862403
349.95967787
350.391829272
381.413177291
350.525868171
350.497362208
350.417793771
350.028752047
350.096946226
343.951021049
343.962834782
343.582257161
343.393452089
343.983497166
343.952518897
344.166301405
344.115065299
343.484097393
386.501915158
351.008381906
350.701733486
350.461792851
350.300784292
350.213120578
350.157156243
350.146254411
350.146720026
350.144521708
350.090201652
349.906137256
348.601109706
349.530538624
349.456866962
349.866373172
525.37002659
528.823599865
348.482225081
526.834535287
345.264096275
345.322122984
345.143830452
345.247212026
527.813485994
348.507440334
347.230410609
347.19895177
526.57232283
345.119091747
344.980411611
345.758619122
346.038073809
530.395995209
345.111625924
345.111951724
526.419724286
345.154055418
343.723161679
343.408021379
530.381905316
346.023246896
345.216061493
526.086775423
410.320313956
409.805314182
414.412871426
414.493382526
529.488298381
411.942861743
411.585285132
526.261847479
529.062429817
412.971036024
412.402291367
411.013597359
410.723015161
526.461311122
345.887428558
364.714122186
364.660210845
530.136294332
414.534798334
414.45059628
526.158981814
411.338673437
411.185333722
414.24822837
413.780266324
530.041368598
343.604388901
343.789032121
345.204104355
345.865302607
364.666354082
364.889335624
363.797236885
364.131830256
345.503323415
364.887282757
364.806840781
345.951842673
347.31440933
347.258307017
348.529025881
343.759753747
343.624997565
345.292035132
345.091342362
363.034941399
363.079461411
362.745633314
362.950188526
345.062624913
345.272110489
343.581257927
343.51469039
363.11123859
363.182025445
345.096762597
345.089536199
363.335569504