/*--------------------------------*- C++ -*----------------------------------*\
  =========                 |
  \\      /  F ield         | OpenFOAM: The Open Source CFD Toolbox
   \\    /   O peration     | Website:  https://openfoam.org
    \\  /    A nd           | Version:  8
     \\/     M anipulation  |
\*---------------------------------------------------------------------------*/
FoamFile
{
    version     2.0;
    format      ascii;
    class       volVectorField;
    location    "1.2e-05";
    object      U;
}
// * * * * * * * * * * * * * * * * * * * * * * * * * * * * * * * * * * * * * //

dimensions      [0 1 -1 0 0 0 0];

internalField   nonuniform List<vector> 
49986
(
(2132.99999933 -6.73753401693e-07 0)
(2132.99999741 -1.88980631511e-06 0)
(2132.99998969 -7.91006793385e-06 0)
(2132.9999579 -3.25206614837e-05 0)
(2132.99982698 -0.000133845881612 0)
(2132.99928744 -0.000551795777548 0)
(2132.99706297 -0.00227853119712 0)
(2132.98790908 -0.0093909158944 0)
(2132.95017939 -0.0388972929047 0)
(2132.79629758 -0.162514554772 0)
(2132.19831585 -0.691860833233 0)
(2132.58878647 -0.147923144672 0)
(2132.12661369 -0.209276976986 0)
(2131.21520582 -1.34881432114 0)
(2085.95389768 -46.5244722177 0)
(2127.57599343 -4.45593619668 0)
(1814.08632449 -14.0264905339 0)
(2001.00180738 317.306034111 0)
(2065.00609353 -69.9302740459 0)
(2129.70512376 -2.36813772094 0)
(2060.21585974 -64.7482165041 0)
(2123.10374343 -8.72453073395 0)
(2112.33542014 -17.8865441091 0)
(2125.60872195 -5.36113077064 0)
(2118.98504682 -11.2547586421 0)
(2020.60613305 310.050160069 0)
(2027.51307968 -105.809736471 0)
(2131.83050528 -0.0795360896333 0)
(2115.8825973 -22.5793223969 0)
(2031.49051215 -102.272368213 0)
(2012.57052046 306.769471943 0)
(2111.73305519 -18.4597694912 0)
(2034.84847499 -90.4743548346 0)
(2099.27443117 -37.5718059276 0)
(2003.35379216 234.851053305 0)
(1996.71020562 -126.361447928 0)
(2125.82636184 -5.36154436171 0)
(2110.20045373 -3.91806351518 0)
(2104.25888196 -11.0381379915 0)
(2012.69989757 316.46583626 0)
(2067.39062176 -59.0941831211 0)
(2052.92749123 -76.7853252889 0)
(2062.94704767 -74.4273392025 0)
(2098.17040785 -32.6350674897 0)
(2117.58339675 -11.3110141497 0)
(2103.03367318 -23.5949498184 0)
(2079.68154043 -59.3560925794 0)
(2003.07627621 -126.240593719 0)
(2014.95872368 280.519948823 0)
(2058.81573001 -67.5960864465 0)
(2006.89880143 -126.711726354 0)
(2051.41290372 -86.1980730348 0)
(2131.27163376 -1.28927106855 0)
(2016.91009787 -106.082947287 0)
(2114.38313907 -15.7385804142 0)
(2102.50506498 -39.749915864 0)
(2112.40093711 -23.6390071604 0)
(2116.62592788 -12.1225325522 0)
(2073.55675391 -66.2687930082 0)
(2102.34640378 -36.542128208 0)
(2076.60815277 -65.817162303 0)
(2011.07850644 309.170797518 0)
(2101.05604413 -12.4146036147 0)
(2092.01906916 -42.9957059936 0)
(2096.54270424 -31.7827573168 0)
(2066.8922362 -62.1267250887 0)
(2094.49036602 -36.8776774692 0)
(2059.30950635 -77.3347241669 0)
(2050.07148026 -86.3691271025 0)
(2065.35741042 -65.6772359452 0)
(2076.53656891 -62.7483976926 0)
(2051.63369523 -84.4139544574 0)
(2073.83065573 -64.6607609741 0)
(1912.17018024 78.852181938 0)
(1940.44936514 -161.755305536 0)
(2004.21206748 -78.9815774375 0)
(2056.07377053 54.0312885044 0)
(2057.28214946 53.8027720871 0)
(2007.03352385 321.473965998 0)
(2052.75563867 38.0554009798 0)
(2045.00749911 17.7786763944 0)
(2022.87951988 307.934258727 0)
(2033.34056032 -91.3986983835 0)
(2023.40544789 -101.658288945 0)
(2026.01099101 -103.573092408 0)
(2039.07706216 -94.9064151397 0)
(2055.50622029 -81.5380815623 0)
(2039.63553807 -95.6800989147 0)
(2010.5305974 303.623262461 0)
(2053.70260924 39.2664303608 0)
(2053.67395601 40.9845494193 0)
(2036.14801663 -93.4897867263 0)
(2039.52439478 -96.6875765102 0)
(2042.72871276 -85.6028091274 0)
(1983.41583146 -111.91545658 0)
(1952.07488338 -147.496310401 0)
(1957.97941189 162.036963297 0)
(2024.07402739 -100.857838704 0)
(1977.15472339 -155.293146394 0)
(1983.89557686 -147.525625402 0)
(2101.83523126 -22.110062376 0)
(2015.9421501 -101.297725856 0)
(2082.45671979 -42.7202539028 0)
(2108.35833974 -6.48133907535 0)
(2092.26456956 0.046076141911 0)
(2094.03215838 2.57484822525 0)
(2086.84603564 -2.69749625702 0)
(2089.59865053 -0.764963173957 0)
(2105.82955345 -7.74216338842 0)
(2007.50620139 319.445078718 0)
(2055.98782855 51.113744213 0)
(2054.35348815 46.8120951001 0)
(2053.57939409 -78.5552069699 0)
(2054.03235772 -78.4258174807 0)
(2057.29279046 -73.8970118354 0)
(2052.29155526 -91.5647588881 0)
(2054.47019826 -76.1993777501 0)
(2073.98178967 -52.6189919102 0)
(2006.08523072 -125.509412542 0)
(2033.32038959 -98.2550728992 0)
(2024.45156453 -115.071819192 0)
(2019.0680716 299.587135865 0)
(2035.38018897 -16.4668560816 0)
(2017.37104993 -63.1412927699 0)
(2013.29131139 -123.74115426 0)
(2016.96616003 -115.799458178 0)
(2028.93970892 -100.365383034 0)
(2031.79415544 -106.334091285 0)
(2021.20013522 -113.544301705 0)
(2027.70285273 -111.526226438 0)
(2114.93314245 -15.3890001935 0)
(2126.8480111 -4.93597882971 0)
(2132.57603341 -0.0749860519516 0)
(2065.48481594 -61.174519115 0)
(2106.19632776 -18.093946092 0)
(2071.81494919 -54.0077061689 0)
(2053.53670567 40.3466297074 0)
(2054.6906186 38.4776854708 0)
(2012.64017294 307.805498744 0)
(2105.43981507 -20.9415148965 0)
(2086.51514365 -12.3589051064 0)
(2084.92835738 -6.30004325471 0)
(2084.6630295 -33.7299711841 0)
(2087.54488771 -21.5637246596 0)
(2105.3393085 -25.333216942 0)
(2048.23050098 -87.2153865454 0)
(2042.2849097 -93.4079359985 0)
(2046.65122064 -87.5741632125 0)
(2052.54962045 -78.6245943899 0)
(2046.21987411 -83.6442637514 0)
(2047.25225967 -84.7998347541 0)
(2054.50201289 -80.0079541048 0)
(2063.55283792 -71.8686143762 0)
(2055.45823808 -80.4592542576 0)
(2132.99984724 -0.00018886858296 0)
(2132.99953507 -0.000355257697634 0)
(2132.99855076 -0.00120850319117 0)
(2132.99532043 -0.00394704051386 0)
(2132.98480132 -0.0128570567997 0)
(2132.95076905 -0.0417004401164 0)
(2132.84108396 -0.134713721357 0)
(2132.48884541 -0.434387627104 0)
(2131.37455585 -1.38270361783 0)
(2127.87236252 -4.31391337694 0)
(2116.68412252 -13.8684865729 0)
(2103.67792592 -23.7007026885 0)
(2086.27790299 -62.5505586367 0)
(2094.84587556 -42.7219800848 0)
(2108.36802185 -34.0036251035 0)
(2105.5392037 -28.5031686711 0)
(1998.55415253 313.94008101 0)
(1966.62871415 271.427238349 0)
(2127.59655056 -3.33041473224 0)
(2108.22933207 -27.9496295086 0)
(2122.98043359 -11.8119160223 0)
(2109.04520444 -39.382546143 0)
(1980.56667866 295.910576861 0)
(2129.53782077 3.0445044078 0)
(2122.30803265 -14.320295421 0)
(2127.63992772 3.86258726297 0)
(2130.18217468 2.56159466672 0)
(1978.90777479 295.122604183 0)
(2123.93787131 -21.2010088531 0)
(2129.95658979 -6.45130161989 0)
(2129.58380092 -1.14572877778 0)
(1991.15113619 307.837615032 0)
(2106.90856861 3.70742277685 0)
(2110.08754058 -0.960083387805 0)
(2099.981196 6.08855094119 0)
(2103.51256568 5.85419231088 0)
(1971.66518245 282.321716246 0)
(2104.30307867 7.05580755282 0)
(2108.83211185 4.33369229052 0)
(1988.07970719 305.182666846 0)
(2128.96884085 -0.933581711643 0)
(2121.57362055 2.43196080124 0)
(2119.13737665 5.08008746796 0)
(2120.77919028 -4.789391308 0)
(2121.29693008 -0.500753784851 0)
(2128.86956164 -4.51469964604 0)
(2128.51052851 3.62643656364 0)
(2118.68793535 3.98295370379 0)
(2117.37870895 3.74931745579 0)
(2119.40777076 4.66386899839 0)
(2119.53864625 4.22254749475 0)
(2129.61451577 3.68958795745 0)
(1971.8828322 284.023845753 0)
(2103.87182001 5.61994436388 0)
(2103.37866313 6.50207277668 0)
(1995.66321196 311.25189894 0)
(2050.46729458 54.4834485833 0)
(2053.47353172 54.1757022938 0)
(2024.09912333 73.0121981438 0)
(2025.52458503 71.084001567 0)
(1967.83185403 275.956402915 0)
(2037.81820083 63.9471933459 0)
(2040.92760057 62.2532348736 0)
(1982.96219544 299.349472294 0)
(1976.221248 292.566248043 0)
(2031.94366532 64.8298836554 0)
(2034.38131081 64.8982055868 0)
(2046.50226971 56.4206526306 0)
(2048.64776826 55.4700739399 0)
(1993.78921413 308.523288417 0)
(2107.21031905 2.9731733278 0)
(2087.58782474 8.00756152331 0)
(2087.30036683 8.03941266261 0)
(2091.81797016 6.49377120538 0)
(2088.17017011 7.94461121807 0)
(2106.71646392 2.24683664391 0)
(2100.7446249 6.27671887024 0)
(2073.44971848 12.7352119097 0)
(2072.12410922 13.732173825 0)
(2076.81650821 13.2949353643 0)
(2075.47619246 12.9771410937 0)
(2102.41355713 6.25603183257 0)
(1970.66915783 280.796857748 0)
(2027.60450633 72.0062216893 0)
(2029.74650719 71.761212573 0)
(2106.68214889 6.63371201837 0)
(2084.67294319 9.92585372705 0)
(2081.7167941 10.5602434692 0)
(2087.66396166 8.73816818701 0)
(2086.6855972 9.42620809622 0)
(2108.5216706 5.35084907726 0)
(1986.30246356 302.921329373 0)
(2044.84253589 60.9022714594 0)
(2046.12268185 58.435672963 0)
(2031.11181885 69.0195186258 0)
(2031.39908595 65.8261876032 0)
(1973.68177562 287.918866662 0)
(2103.59915795 5.12750111302 0)
(2077.62169536 10.2819868461 0)
(2077.85474909 12.1881402693 0)
(2079.5778238 10.3431159891 0)
(2077.9371108 9.87028258067 0)
(2103.12924849 5.53496521116 0)
(2132.99808463 -0.00234195781841 0)
(2132.99510986 -0.00380597994693 0)
(2132.98605259 -0.0120490268397 0)
(2132.95929155 -0.0356396551185 0)
(2132.88198303 -0.103999947388 0)
(2132.66248344 -0.29916486205 0)
(2132.05538319 -0.842894670143 0)
(2130.42850125 -2.29595006989 0)
(2126.11255393 -6.04813566711 0)
(2118.63798011 -13.2753361857 0)
(2115.33727438 -19.3275529739 0)
(2112.72194605 -26.0963006594 0)
(2131.24198608 -8.65294919434 0)
(2130.91234763 -0.511464727729 0)
(2132.16683522 3.86144128622 0)
(2125.2908288 -17.2625820559 0)
(2132.66320345 -2.5253642756 0)
(2121.8679617 -18.219642787 0)
(2134.64903835 0.264470080738 0)
(2133.15419465 1.70473619858 0)
(2132.88801987 -0.318106118892 0)
(1966.45528167 268.842587467 0)
(1957.28617999 171.964351794 0)
(2132.91990975 3.93321787691 0)
(1957.88440974 165.740510019 0)
(1955.41006746 85.5722696424 0)
(2129.75606176 2.39454547365 0)
(2129.90661449 2.39207978287 0)
(2129.99260615 3.39181668092 0)
(2133.77637865 1.27541918257 0)
(2127.70299658 3.91368830576 0)
(2126.31986708 2.80473086781 0)
(2131.22926054 3.46578271046 0)
(1960.91454331 229.62841539 0)
(2124.69241371 4.51923751702 0)
(2126.67641223 4.2781235536 0)
(2120.9347366 3.29928081644 0)
(2124.17959081 4.27707237364 0)
(1960.16621391 222.156796375 0)
(2133.68992205 2.56634055868 0)
(2129.91267801 4.15692186986 0)
(2129.03629646 4.39620078862 0)
(1955.91722873 118.509679229 0)
(2116.08919623 1.23143962795 0)
(2119.5637386 2.93048115123 0)
(2113.9495374 1.80374016153 0)
(2115.45554342 1.25646181252 0)
(1956.12795945 113.55570049 0)
(2130.13384596 3.05624033476 0)
(2125.25706083 2.13261247799 0)
(2124.52857889 1.87809885314 0)
(1963.86703932 256.195706178 0)
(2098.13577067 6.0628078581 0)
(2099.1522852 5.81527644549 0)
(2084.07783213 3.89751679453 0)
(2087.89429368 4.64038701666 0)
(1957.97708805 191.398879594 0)
(1955.99489884 143.917797124 0)
(2079.87791248 3.70845001097 0)
(2082.93991022 3.91627006671 0)
(2067.30864012 2.59258813307 0)
(2072.21267706 3.74055228523 0)
(1954.17032054 90.4924266261 0)
(2093.27134259 6.69728471399 0)
(2096.81121668 6.94422621613 0)
(1964.17636322 251.682826611 0)
(2124.95294473 4.73963952917 0)
(2113.15068843 3.8955202036 0)
(2111.75487825 3.65919960832 0)
(2116.19378303 3.40063056156 0)
(2115.04192237 3.52095643526 0)
(2125.80848237 4.81777282216 0)
(2122.11875511 3.86339954353 0)
(2107.16045385 2.45565601137 0)
(2105.167925 1.77349499554 0)
(2110.67734168 3.44425340657 0)
(2109.15369555 2.98021672157 0)
(2123.3247191 4.06173622228 0)
(1958.57844248 199.00323217 0)
(2089.17009081 4.65981372051 0)
(2092.36026792 6.60502221277 0)
(2076.70872154 3.84865121397 0)
(2078.87982704 3.66542621409 0)
(1956.73145513 139.074229758 0)
(2117.29621476 1.64888169039 0)
(2100.10449392 1.76505074515 0)
(2098.80255923 2.5077302431 0)
(2103.21333162 1.3222441372 0)
(2101.35795426 1.51579456349 0)
(2118.21763605 2.06856096135 0)
(2114.44986284 1.78104150755 0)
(2090.13594423 2.22402069001 0)
(2087.17438777 1.54010679668 0)
(2097.44175235 3.69037180108 0)
(2091.22412618 2.47811286047 0)
(2114.4800948 1.66862189045 0)
(1954.21270513 94.7293377747 0)
(2073.46196296 3.6826158272 0)
(2075.58533756 4.03118008943 0)
(1965.65957408 264.704564907 0)
(2021.42563784 75.8395869257 0)
(2022.92193464 75.3321806866 0)
(2004.96047392 107.008016442 0)
(2005.98127451 104.75763962 0)
(1958.11332615 179.719007428 0)
(1957.23208817 157.520188993 0)
(2003.34695188 111.880216014 0)
(2004.26302409 109.915962213 0)
(1999.6749366 133.349046224 0)
(2000.52260211 132.562579976 0)
(1955.40306564 87.6121726157 0)
(2013.91135541 88.0189834652 0)
(2015.42019694 85.8144066932 0)
(1961.96884401 237.544536452 0)
(1959.97546816 215.119823307 0)
(2010.88181314 93.2174287365 0)
(2012.38915915 90.5950265785 0)
(2001.1008555 125.382817898 0)
(2001.15055435 122.360450181 0)
(1956.14114925 124.274291549 0)
(1954.61488212 106.361401925 0)
(2000.35105383 131.650326015 0)
(2000.79012054 129.140685667 0)
(2020.96173591 78.5589471296 0)
(2020.86243905 76.1154015689 0)
(1964.3599363 259.978350067 0)
(2098.46759741 5.42401731815 0)
(2069.7411178 13.8437815175 0)
(2069.65412126 15.1759341085 0)
(2071.03190145 14.0915314702 0)
(2069.88320958 13.796258693 0)
(2098.69723116 5.25194907884 0)
(2085.11196846 4.07015919529 0)
(2054.42699423 19.9862037197 0)
(2053.25908797 20.5091261856 0)
(2057.4659755 18.3130844685 0)
(2055.91138902 19.3712369366 0)
(2086.60150286 4.43509330217 0)
(1958.74009598 186.415500232 0)
(2007.15596921 102.856934703 0)
(2007.930782 98.9172782316 0)
(2002.37045189 116.947785345 0)
(2002.71496404 113.846554053 0)
(1956.10081528 149.904181917 0)
(2080.7308684 3.53187816135 0)
(2050.22565632 22.1218643687 0)
(2049.35066829 22.9083295871 0)
(2052.23266159 21.401483834 0)
(2051.14340865 21.703536869 0)
(2081.94999238 3.58997101924 0)
(2069.1403992 3.19360031685 0)
(2040.4600787 28.1494410496 0)
(2038.51993498 27.9769446597 0)
(2043.04783524 28.0348069665 0)
(2041.98961487 28.1075939575 0)
(2070.75173952 3.56521437081 0)
(1954.85389949 88.4820312797 0)
(2000.9150807 132.294596861 0)
(2000.87746453 132.314331411 0)
(2094.15939723 6.86640184731 0)
(2065.08529758 17.5376634858 0)
(2063.79111568 17.8831069194 0)
(2068.45912826 16.7111811672 0)
(2066.54780984 17.4409232037 0)
(2095.14817188 7.14544198845 0)
(1963.77875692 246.002016722 0)
(2017.84978304 84.6634095243 0)
(2019.82148129 82.6948427781 0)
(2008.58151876 96.0030343899 0)
(2009.46957207 95.0212979604 0)
(1959.5574423 207.611648811 0)
(2090.1743655 5.40715748332 0)
(2059.47004008 18.143125372 0)
(2058.41890871 17.9076124419 0)
(2062.452706 18.3700930646 0)
(2060.91869976 18.5872588687 0)
(2091.36517914 6.16133340269 0)
(2077.3738689 3.27610234384 0)
(2046.93403233 24.2862826184 0)
(2046.53773434 25.1975360903 0)
(2048.29777957 23.9305404232 0)
(2047.35718892 23.9719631278 0)
(2078.13619045 3.337204557 0)
(1956.62923228 131.915240578 0)
(2001.07582567 121.005991317 0)
(2002.00117787 119.863764977 0)
(2000.52349364 132.185409945 0)
(2000.30209803 131.699368157 0)
(1953.87734058 99.5038766429 0)
(2074.3167022 3.60678748884 0)
(2043.64359247 26.9189500513 0)
(2043.29224239 27.510984039 0)
(2045.58474086 26.7769117009 0)
(2044.41290782 27.0056640191 0)
(2074.81505044 3.63224881885 0)
(2102.63289412 3.81833100965 0)
(2103.05839307 4.0318304647 0)
(2088.18333065 1.95905636896 0)
(2089.03595966 2.22263758883 0)
(2103.25086773 4.01028946293 0)
(2103.06643383 3.94351946679 0)
(2102.1964285 4.01887810138 0)
(2101.25781167 3.77468511963 0)
(2093.03358413 2.65812978539 0)
(2132.98696371 -0.0157546171127 0)
(2132.97193741 -0.022098443109 0)
(2132.92659488 -0.0657035528422 0)
(2132.80602943 -0.175817333049 0)
(2132.49467325 -0.463246175672 0)
(2131.72364042 -1.18058477801 0)
(2129.87873393 -2.91109758525 0)
(2125.99391608 -6.92530479597 0)
(2125.69934417 -6.85116655207 0)
(2122.88310951 -10.3683372198 0)
(2121.15225128 -11.4696483607 0)
(2121.75229946 -11.64000361 0)
(2119.91165239 -13.7244690238 0)
(2123.02589497 -11.8505762006 0)
(2121.98333823 -14.9198156954 0)
(2130.73318166 -6.02167684314 0)
(2134.06628491 0.689709591125 0)
(2129.23934839 2.37603978049 0)
(2132.33335746 1.79387228973 0)
(2131.08456276 1.3411222505 0)
(2132.82554803 0.954027603997 0)
(1955.38446248 84.8931372681 0)
(1958.36639588 76.8272303451 0)
(2126.77217395 -0.00936701383723 0)
(2123.60433513 1.37807166822 0)
(2122.24493101 0.218599054097 0)
(2128.62551908 1.83172916519 0)
(1956.87046977 85.728313535 0)
(2110.71462224 -1.49560321962 0)
(2113.54195977 1.52606263557 0)
(2109.02876623 -2.03908531602 0)
(2109.96994476 -2.24562528407 0)
(1957.43699495 86.2676416428 0)
(2127.5291357 1.07789627014 0)
(2120.60568566 -1.35965798748 0)
(2119.7120854 -2.07984961612 0)
(1956.22194662 85.046610901 0)
(2062.61518545 -0.404489616967 0)
(2065.41922116 1.65485931536 0)
(2060.20439071 3.75052804611 0)
(2061.1380576 1.25731546099 0)
(1957.7855719 79.9562024237 0)
(2061.238294 0.688266901724 0)
(2062.00438118 -0.245230724558 0)
(1956.42876184 85.2902344835 0)
(2111.68979124 -0.158872098297 0)
(2083.28456795 -2.019724569 0)
(2082.50667746 -1.64720669375 0)
(2086.12469649 0.84470380074 0)
(2083.78132749 -1.62733141882 0)
(2112.77385027 0.740860568223 0)
(2108.81265963 -2.22128882051 0)
(2082.56792967 -1.26076874165 0)
(2082.30661574 -0.644112239969 0)
(2082.46615995 -1.65177613727 0)
(2082.49476777 -1.55698094669 0)
(2109.08486488 -2.43707304653 0)
(1957.59732388 81.025479581 0)
(2061.06115637 0.558040094188 0)
(2060.93019776 0.792493719363 0)
(1955.71238194 84.1045538464 0)
(1997.05559769 132.450556415 0)
(1998.28976334 133.625764082 0)
(1992.67406235 130.902609521 0)
(1993.12147841 131.475958437 0)
(1958.1936695 77.6955450021 0)
(1995.45621966 133.720983562 0)
(1995.72039868 134.562225428 0)
(1956.68720863 84.9976974202 0)
(1957.70918331 85.0871301463 0)
(1994.6682766 134.383514084 0)
(1995.16987021 134.597315617 0)
(1997.47055629 133.172760602 0)
(1997.63569412 132.118306901 0)
(1955.97685806 84.2581805279 0)
(2063.20618682 -0.461779801092 0)
(2035.34784173 25.9908752223 0)
(2034.41398119 27.7383778285 0)
(2036.44730209 27.2873938463 0)
(2034.79188693 25.8627735603 0)
(2063.78025402 0.379870058144 0)
(2060.40360481 3.60717629801 0)
(2028.90047788 39.6072414252 0)
(2028.33175992 39.7866518578 0)
(2029.65450856 37.2237164962 0)
(2029.33716852 38.8176469686 0)
(2060.91460074 2.35864275594 0)
(1958.11100314 78.9735653078 0)
(1993.38559035 131.757976098 0)
(1993.40219446 131.662316182 0)
(2061.24541746 -0.0476894568577 0)
(2031.81959389 31.9764118993 0)
(2031.716988 33.8334146593 0)
(2033.58331737 29.8499499281 0)
(2032.76740739 31.2152974208 0)
(2061.48873644 0.0112991465028 0)
(1956.69461792 84.9831782379 0)
(1996.63062217 134.316207911 0)
(1997.14769379 134.558217321 0)
(1993.58681718 132.09382692 0)
(1994.02973121 133.38880173 0)
(1957.58632549 82.7847985601 0)
(2060.72535087 0.298307561641 0)
(2029.9375591 34.5923812422 0)
(2030.04425624 35.2745743541 0)
(2030.57378032 34.7009083319 0)
(2030.08384324 34.9095439914 0)
(2060.68210121 0.571225378555 0)
(2096.98564397 0.314872486249 0)
(2097.21194681 -0.226739284976 0)
(2082.426988 -1.78343858022 0)
(2082.4109146 -0.779341452594 0)
(2096.73177735 1.25241432734 0)
(2096.94824718 0.703363388175 0)
(2096.83784283 1.11334179051 0)
(2096.76471142 1.21841293361 0)
(2082.22275377 -0.557037631344 0)
(2082.3919869 -1.75829461191 0)
(2097.70823618 -0.5809044483 0)
(2098.03137626 -0.842997626546 0)
(2098.11577536 -0.949645705356 0)
(2098.64613016 -1.16479264628 0)
(2082.81701873 -1.8955190108 0)
(2082.9067148 -1.94297087109 0)
(2099.28887364 -1.21122361242 0)
(2099.53863263 -0.15409782228 0)
(2100.0757619 0.631877791547 0)
(2100.79161828 1.80002133158 0)
(2084.52186242 -1.10263147873 0)
(2085.05953573 -0.199602871563 0)
(2101.37690256 2.53189758375 0)
(2102.07986667 3.41510144307 0)
(2132.93819854 -0.0743316955015 0)
(2132.88791955 -0.088371594429 0)
(2132.64564356 -0.277460995737 0)
(2132.72779569 -0.251934846745 0)
(2132.21187209 -0.758907910552 0)
(2132.34003798 -0.617351492568 0)
(2131.27192486 -1.66787572861 0)
(2131.4519233 -1.46664072169 0)
(2129.32876674 -3.59054288376 0)
(2129.49539681 -3.35833856064 0)
(2126.33869152 -6.67173907982 0)
(2124.04911617 -9.32740663706 0)
(2123.19916356 -10.3582131223 0)
(2123.76657124 -10.482745224 0)
(2128.40670099 -6.99172944078 0)
(2132.48560414 -2.29165609154 0)
(2132.12882009 0.564289312872 0)
(2125.59774717 -0.800247036348 0)
(2129.58884413 0.124564287143 0)
(2129.16639099 -0.897587704273 0)
(2131.39121994 0.028412331089 0)
(1958.88936698 76.3868056968 0)
(1962.62559715 63.9464635749 0)
(2125.01445568 -0.291037805112 0)
(2119.01792131 -1.63164825233 0)
(2118.54792617 -0.944575716913 0)
(2125.13942306 -0.90126996851 0)
(1959.42983336 69.8160015001 0)
(2108.11851598 -0.818771526167 0)
(2109.03684715 -1.70281193912 0)
(2106.72639113 -1.02111321391 0)
(2107.52547654 -0.936569119206 0)
(1960.0185213 69.8965684153 0)
(2125.27373655 -0.665971268168 0)
(2118.32561559 -1.05011035837 0)
(2117.94643976 -1.02547300702 0)
(1959.68704039 74.189352693 0)
(2059.78159969 5.33436740099 0)
(2060.08370462 3.66616991944 0)
(2057.05062101 8.82089914421 0)
(2057.09725488 8.41625016429 0)
(1961.75345974 66.6761346483 0)
(2057.8562985 5.85066098662 0)
(2059.17539518 5.45312651597 0)
(1959.7209093 72.7111919562 0)
(2108.63588695 -0.845743384837 0)
(2082.29221093 -0.457990406191 0)
(2081.27876683 -0.931256353764 0)
(2082.55181549 -0.825339928265 0)
(2082.70296887 -0.4096124665 0)
(2109.13273124 -1.27810182277 0)
(2106.77408213 -1.12283499353 0)
(2080.40533419 -0.352770115385 0)
(2080.6077974 -0.412901739861 0)
(2081.23396732 -0.850451807619 0)
(2080.6608896 -0.233664950793 0)
(2107.12335876 -1.04434580813 0)
(1961.93667139 68.4461853024 0)
(2057.45934234 8.14308551286 0)
(2057.8330412 6.05209075874 0)
(1959.20737529 75.8673007512 0)
(1992.5741895 129.759287108 0)
(1992.3904982 130.394263438 0)
(1991.63396463 117.01136368 0)
(1991.3877884 118.210050259 0)
(1962.1619797 64.4892961538 0)
(1990.70226758 124.730242104 0)
(1990.95882222 125.701070132 0)
(1959.27492404 70.0315193682 0)
(1960.79707997 69.7615815874 0)
(1991.29286075 123.122158154 0)
(1990.75270977 123.826285591 0)
(1992.7801647 128.775078418 0)
(1992.83731985 129.247188646 0)
(1959.45647132 75.1723650509 0)
(2060.35456278 4.88395041057 0)
(2028.70350494 41.256899653 0)
(2028.20093277 42.3143142708 0)
(2027.967895 39.7434429089 0)
(2028.20259715 40.0514487382 0)
(2060.34665682 3.98447222191 0)
(2056.79107489 8.54774321927 0)
(2024.95814295 52.6805794768 0)
(2025.09580774 53.0831359058 0)
(2025.61558512 51.1717482132 0)
(2025.1647964 52.1457341818 0)
(2056.82806966 8.51150952986 0)
(1961.80348622 65.1467775862 0)
(1991.35417084 119.389198139 0)
(1991.6992112 120.627429198 0)
(2058.25060942 5.76073813973 0)
(2026.19212843 45.0527555926 0)
(2025.69622175 45.8532909319 0)
(2027.44613359 43.0241227707 0)
(2026.79143203 43.9795690279 0)
(2058.70070717 5.57615240628 0)
(1959.52137132 71.112239439 0)
(1991.55105499 126.681128539 0)
(1992.28889043 127.819198443 0)
(1992.35024159 121.891240729 0)
(1992.15463648 122.672186995 0)
(1961.7208471 69.3868028407 0)
(2057.86659358 7.744158458 0)
(2026.40610105 48.9936099184 0)
(2026.18208915 50.0352327478 0)
(2025.55292022 46.4867305608 0)
(2026.03678446 47.6716356496 0)
(2058.06626237 6.94765312838 0)
(2083.03750591 -0.777538161053 0)
(2097.47619115 1.03962924554 0)
(2097.02366253 0.991845772072 0)
(2097.3546286 1.10445801821 0)
(2097.55760735 1.06717994121 0)
(2083.03277952 -0.462125445224 0)
(2081.82800085 -0.651541384853 0)
(2096.51599913 1.12721889329 0)
(2096.91209465 1.18593665036 0)
(2095.93372915 0.916915008179 0)
(2096.13551992 1.07407835807 0)
(2081.52695816 -0.759835333654 0)
(2081.16416796 -0.473272137574 0)
(2095.70199215 1.20747077341 0)
(2095.79410455 0.985012372817 0)
(2095.25015245 1.34686833223 0)
(2095.49106532 1.27960815744 0)
(2080.95741383 -0.26998621333 0)
(2080.328354 -0.473935809406 0)
(2094.95580476 1.32649785954 0)
(2095.03763634 1.32192941479 0)
(2095.15416323 1.46585018114 0)
(2095.02892458 1.31630623778 0)
(2080.40335589 -0.533753647984 0)
(2132.76539581 -0.278590049843 0)
(2132.25272653 -0.825807073539 0)
(2132.09580045 -0.690848540532 0)
(2131.15811749 -1.86498526734 0)
(2129.21513957 -3.76973695261 0)
(2126.59460004 -6.55040467419 0)
(2124.74598638 -8.72986532091 0)
(2124.22797465 -9.43194945131 0)
(2124.44009272 -9.61880105308 0)
(2127.08951889 -7.50041106583 0)
(2131.23752072 -3.33290514189 0)
(2131.92450151 -1.75404734358 0)
(2130.49744726 -0.5249989272 0)
(2124.74806047 0.0556432128044 0)
(2128.5358736 -0.935858410114 0)
(2128.29551579 -0.795326867517 0)
(2130.45451765 -0.801785952306 0)
(1962.9686285 63.2322629921 0)
(1966.5713665 50.9566263497 0)
(2123.96791952 1.16196647004 0)
(2117.67979602 -0.80258798383 0)
(2117.30700584 -0.38296079183 0)
(2124.42484402 0.417730590536 0)
(1964.89382482 55.5545085441 0)
(2106.35189356 -0.547845389123 0)
(2106.53863536 -0.85661357658 0)
(2105.05685762 -0.836295546961 0)
(2105.97641124 -0.467524155529 0)
(1965.03195624 54.4702305469 0)
(2124.26648887 0.814706775589 0)
(2116.95849125 -0.291719420697 0)
(2116.5682003 -0.407959100704 0)
(1963.46170088 58.8189013082 0)
(2056.01235468 11.1960860549 0)
(2057.43795212 9.76905211977 0)
(2054.4115447 14.2875645852 0)
(2054.35325507 13.4820609005 0)
(1965.22766155 50.7695523983 0)
(2055.96360269 11.1306993565 0)
(2055.52339463 11.0042436374 0)
(1963.48201786 57.2142643148 0)
(2106.41362956 -0.646686184421 0)
(2079.38585522 -0.20426105667 0)
(2079.74472377 -0.691499498875 0)
(2080.73200486 0.0131124874125 0)
(2079.54644662 0.181002470955 0)
(2106.4404547 -0.68329068283 0)
(2105.1021165 -0.663667862031 0)
(2078.06661119 -0.230603757352 0)
(2077.91720734 -0.476716071419 0)
(2079.66113301 -0.456851382711 0)
(2078.3433525 -0.0287259720399 0)
(2105.44553047 -0.501783314178 0)
(1965.06343545 51.4705195976 0)
(2054.80518606 13.4373221113 0)
(2056.09768309 11.8046206715 0)
(1963.29042277 62.430667653 0)
(1992.74790949 114.924618569 0)
(1992.14790747 115.919225257 0)
(1993.78248004 92.4865590617 0)
(1993.0389355 94.7801522493 0)
(1966.23977629 51.3724970031 0)
(1993.27239879 105.900651449 0)
(1992.5125724 106.849582828 0)
(1964.49148998 56.2920645199 0)
(1965.13015032 53.4753960649 0)
(1993.68621559 103.510085005 0)
(1993.55702424 104.611859071 0)
(1992.63969873 112.546777443 0)
(1993.14099368 114.033986647 0)
(1963.54887286 60.8376911376 0)
(2056.58027266 11.2431195413 0)
(2025.82967779 56.8891339084 0)
(2025.01078506 57.685152406 0)
(2025.72577061 54.1427464231 0)
(2026.06160989 55.5385579586 0)
(2057.26720494 10.7795204469 0)
(2054.23997674 13.7286328697 0)
(2023.77114172 66.7918400151 0)
(2024.32309966 68.03698219 0)
(2023.88081647 65.4717628891 0)
(2023.56905207 66.0604926569 0)
(2054.15012651 13.5192527025 0)
(1965.55546945 50.9305271467 0)
(1992.70170956 96.7693130175 0)
(1992.92924955 98.7772846736 0)
(2055.47101085 10.8179105841 0)
(2024.20826017 59.2264580176 0)
(2024.89978012 60.0009685258 0)
(2024.30237903 58.0861208893 0)
(2024.05699221 58.5397344635 0)
(2055.34026596 10.8266472547 0)
(1963.75958286 56.6256241696 0)
(1991.89902766 108.173233371 0)
(1991.92100615 110.262662487 0)
(1993.43773917 100.775594708 0)
(1993.71654466 102.261434323 0)
(1965.21855264 52.6195040068 0)
(2055.25068647 13.2016707385 0)
(2025.01315642 63.63443267 0)
(2024.48366421 64.7649348869 0)
(2025.39733097 61.0035038117 0)
(2025.22125368 62.2965419598 0)
(2055.85419963 12.4447854908 0)
(2080.53946139 0.471867861864 0)
(2095.10504045 2.15369540148 0)
(2095.24148325 1.76320597988 0)
(2094.44179181 2.12463042343 0)
(2094.75782982 2.23969606797 0)
(2080.05587878 0.523315301516 0)
(2079.38413255 -0.548559239521 0)
(2094.35894908 1.65740645556 0)
(2094.34007067 1.93250056725 0)
(2094.61083765 1.45167834806 0)
(2094.50223607 1.4420076175 0)
(2079.54735827 -0.73051219573 0)
(2079.41299755 -0.210060324192 0)
(2094.20038308 1.79343933466 0)
(2094.430602 1.58750496974 0)
(2093.22999309 2.03970269295 0)
(2093.63200987 2.03987321572 0)
(2078.87580931 0.0324900967493 0)
(2077.94635228 -0.383876153516 0)
(2092.86386877 1.91174780063 0)
(2092.99431736 2.00074864382 0)
(2092.83629111 1.66209382021 0)
(2092.77973361 1.83733957698 0)
(2077.89254136 -0.449103641631 0)
(2131.07269236 -2.11606904353 0)
(2130.93908973 -1.55556718158 0)
(2129.28564458 -3.90831753213 0)
(2126.89718712 -6.26665956014 0)
(2125.3022366 -8.03107479347 0)
(2124.92053923 -8.80018798777 0)
(2125.06472784 -8.95747252142 0)
(2126.72921334 -7.46156160199 0)
(2129.86319981 -4.29372646881 0)
(2132.20335499 -1.90482104867 0)
(2131.64086418 -1.5708449025 0)
(2130.3416624 -0.919630509338 0)
(2123.58340069 1.27102036304 0)
(2128.01502647 -0.548781091682 0)
(2127.57326828 -0.374201691562 0)
(2130.14270257 -0.887590158372 0)
(1966.52144281 49.9816825663 0)
(1969.70034247 44.5196238492 0)
(2122.31946782 1.25932078256 0)
(2116.00696373 -0.327531150641 0)
(2115.39353266 -0.27695066609 0)
(2123.15473174 1.30150158333 0)
(1968.3797932 47.3362028787 0)
(2104.14253008 -0.365455576032 0)
(2105.11976839 -0.831975282319 0)
(2103.85418348 -0.699762641298 0)
(2103.77927608 -0.501970216585 0)
(1968.37713413 47.3007090928 0)
(2122.72563553 1.288509368 0)
(2114.96751829 -0.446252486011 0)
(2114.37273205 -0.451703287511 0)
(1966.70153315 48.2685629397 0)
(2053.49796189 15.3318752255 0)
(2054.25482286 14.8563378065 0)
(2054.44955465 19.5374239101 0)
(2051.95239138 18.2181987248 0)
(1968.25346662 44.529562365 0)
(2054.01924873 16.3209281453 0)
(2053.69642668 15.1688822414 0)
(1967.01492177 47.8753623446 0)
(2104.84306873 -0.558227262277 0)
(2078.03965076 -1.03833744736 0)
(2077.57197371 -0.123948466878 0)
(2077.96090045 -0.553527026013 0)
(2077.85504424 -0.994421834611 0)
(2105.07870153 -0.744687538388 0)
(2103.93279929 -0.892702483025 0)
(2076.0644587 -0.878606294227 0)
(2077.45725368 0.177575860461 0)
(2076.57782924 0.311688646654 0)
(2075.7998352 -0.524285114438 0)