/*--------------------------------*- C++ -*----------------------------------*\
  =========                 |
  \\      /  F ield         | OpenFOAM: The Open Source CFD Toolbox
   \\    /   O peration     | Website:  https://openfoam.org
    \\  /    A nd           | Version:  8
     \\/     M anipulation  |
\*---------------------------------------------------------------------------*/
FoamFile
{
    version     2.0;
    format      ascii;
    class       volScalarField;
    location    "0";
    object      magGradrho;
}
// * * * * * * * * * * * * * * * * * * * * * * * * * * * * * * * * * * * * * //

dimensions      [1 -4 0 0 0 0 0];

internalField   nonuniform List<scalar> 
50271
(
2.82649591809e-05
7.21295543949e-05
0.000235398689048
0.000763074374669
0.00248652983538
0.00809227881351
0.0262866978562
0.0849675926675
0.273674635518
0.881792078084
2.73096769721
1.90447237479
6.83997415629
5.39541535661
44.8950762837
10.0446640173
6227.59316761
5425.33904071
28.4529621587
22.0718778553
152.694017629
29.0421669648
32.8992926842
12.4781208193
35.1162578775
5184.21348088
83.4373373124
25.1623063645
48.2275404517
26.6470623582
5242.87149932
44.6821626467
65.7210927526
74.3673628035
4466.83503935
110.94222165
164.622833796
12.7288105532
20.4686803187
5352.74245734
63.7667587502
41.0581922967
37.0470386726
110.506364663
44.5030025786
119.077506918
163.531189336
75.1177764861
4636.7383296
199.691289437
97.8350227836
172.657213695
54.5009344158
295.236099419
120.1925882
85.6831246221
41.6703395058
28.2715270425
145.085187748
90.7008955884
119.484902969
5334.09892246
21.0748586739
125.511720096
97.9537603417
102.375782378
88.5686668304
85.0138373406
48.4351885435
122.46990905
84.0822573016
12.452291953
100.083727508
4578.31882785
1281.06247806
1511.26792501
1734.21301898
1694.47414836
5396.15745472
1377.22287038
1247.24885424
5021.54782951
119.686044098
95.4677657591
43.4223204669
115.038382148
113.157019632
96.3660667979
5270.67380792
1529.3389591
1474.67629737
36.6920703045
62.0948393645
84.3572310607
992.388490553
1084.96850625
4383.2830125
376.321090155
229.858138718
71.5976464517
468.694568162
545.167075818
406.175312028
29.6994199753
162.086332253
168.636426276
133.792243089
145.359043046
28.7421228391
5370.72077864
1654.59197065
1623.65074728
17.1991924319
38.6093750667
54.1810069284
199.328480652
154.594043219
97.3420057281
153.786427275
189.861797452
157.400891236
4827.71799126
1115.55652388
1011.64175249
50.5451742658
109.749730144
206.018905578
134.498320167
37.1365818833
138.949183474
201.637684513
78.9538945881
17.06063333
326.458101722
205.524481693
377.328175289
1602.06388795
1566.59070133
5306.85026785
30.9443675126
97.335859762
121.16152395
55.5200585011
77.191568241
106.072139812
72.5898675597
17.7252040915
89.1053418492
64.1690993741
44.3727185198
23.4456325151
65.8933594949
66.8801423077
55.6532144142
0.000368111862954
0.000788488295
0.00239414327247
0.00706072270989
0.020791502313
0.0605408138582
0.173768792485
0.492059772797
1.36621463658
3.34593744732
5.77300805725
11.928373089
36.6589384127
5.96961207348
13.7770066214
3.51196775532
5448.23048744
5419.46908266
19.3196676146
49.4884569022
28.8836614362
34.2838494157
5451.90452289
7.49338439171
31.5433397187
4.1358178141
4.68446433801
5435.98231194
25.8440660014
13.7166044663
4.7330657906
5426.85337261
31.3702328735
16.3545593513
52.3491651839
50.6255381102
5427.09355842
39.2030307863
38.1914250987
5430.19475375
9.36085877063
4.22122042019
6.06280937333
17.2565853569
7.14536348697
26.2126284257
3.24810758229
13.147235636
12.9894985102
12.5754764311
14.7530256173
2.88848293878
5430.11420115
50.9160801948
43.7610645642
5451.42196509
1796.79996882
1765.02076658
2188.42178504
2153.74873271
5422.40329189
1965.48659168
1937.25500866
5454.32102747
5432.26924689
2025.9358509
1991.67140146
1845.41416848
1825.27139348
5439.92129586
27.3915142151
200.07202755
211.296096774
177.81729474
187.457647816
17.8727658774
50.182144892
301.134107836
310.136660429
284.241542751
292.667113467
50.1125148945
5423.61083616
2125.42028891
2094.71521066
36.7448394731
235.208778581
240.868493023
218.532205674
228.607200368
36.8583465799
5440.90206166
1901.70283877
1868.45373331
2067.58030095
2048.34134448
5436.40225056
49.8828041766
270.435702151
275.352889431
249.820656812
264.099977962
47.3336753263
0.00264435189996
0.00473182122464
0.0134679208012
0.0362681530987
0.0965866665737
0.251179127878
0.633760317872
1.52320181019
2.70389313329
2.699982553
1.06316255046
5.73820893058
6.71774223076
9.59483598874
1.14678650179
14.2354157261
9.00372323164
8.2428377318
3.5841122161
0.810043268024
4.5665189136
5406.71733006
4997.56968263
1.80625897581
4963.04142628
4447.56582108
2.20912822933
1.26604356059
2.4391000465
8.01251061432
5.35860367719
5.75432734057
1.92053403722
5251.66654288
7.21071399185
5.01886691497
10.1769084165
7.99686569549
5227.43625586
2.09666896488
3.40272929531
4.10485567157
4739.99822717
9.37121907635
9.85421790064
7.01679078394
8.20160514427
4710.1680631
2.19083570053
5.07837680132
4.08809944999
5341.72274568
55.8117495039
53.741790401
70.5247930603
66.9158533701
5083.12352571
4851.16715579
72.1064993578
69.9476023921
104.164112968
87.7480884032
4564.53725772
60.5510925697
55.5713395535
5334.9416409
6.63299176977
13.9957956155
15.2225579657
14.3544606778
13.9574038677
5.30212253931
8.85159271521
17.3976773124
17.8188325111
16.233508315
17.4328469229
8.74960559955
5126.83412722
66.9189941584
61.7241971402
76.190471537
73.4026327674
4813.42628756
9.19416863839
16.0219874808
15.656537787
16.8288497225
16.1929152397
10.247320089
6.53913033858
26.853860522
32.90321806
15.7202702251
24.0216859859
6.65616354667
4605.8479761
82.4528841314
77.9002215192
5381.84062589
2232.7606186
2213.05164181
2652.62929742
2617.91163213
5032.2732795
4926.1887842
2696.58271643
2677.1067116
2976.50521633
2970.39373222
4490.21991003
2417.30036303
2387.83448427
5284.4621551
5200.42678381
2481.92868446
2447.33793414
2846.0472089
2814.98631647
4764.96468773
4678.40836517
2885.61972706
2866.17962707
2286.90183564
2255.90409753
5351.87613123
55.2936841263
333.772500019
343.748774519
319.915513115
326.982184903
55.2578204526
68.2230364203
483.965758659
500.915917189
458.372442321
470.368844683
68.42527128
5058.05044385
2586.78894998
2560.64511749
2748.65264994
2719.73274955
4887.46743924
69.3789818174
535.250140559
551.413660331
515.215408659
524.857932007
69.9961877031
99.2654389536
726.009174671
741.643384161
689.785570775
709.854302462
94.1138330887
4529.85960141
2966.12331568
2955.1343683
58.5348567264
378.020365765
391.499664409
353.374224842
364.507091318
57.2184782852
5318.83316189
2358.88298036
2322.94758111
2539.88217258
2517.92091967
5168.12218375
65.4584035404
434.118169111
447.086534763
404.390975957
419.422028584
64.5834318639
73.8569000696
586.641820695
604.759308905
566.199299146
575.600535244
73.7791269451
4783.23815066
2787.23611196
2767.55194568
2927.48257712
2904.50026033
4645.65226228
79.4840293944
642.89678255
663.428908217
620.041921707
631.247154938
77.9831434807
19.0553791149
18.112663687
30.9604957232
29.14858468
17.2271813891
16.7520070199
15.1316898776
13.7892783208
21.9428442293
0.0131348693553
0.0195936245353
0.0527231238827
0.128893026412
0.309121744951
0.709732271656
1.49098564969
1.62888271315
2.05705579479
0.949594962666
1.47916767956
0.361830390119
0.527112508749
1.82369305253
3.43819373696
3.15212729197
1.58874385942
2.29483234928
0.544434083552
1.24520174515
1.15798345028
4412.58214186
3992.49727249
3.80319376573
4.26752046099
5.62645386192
3.02755965387
4182.85821033
10.7499474976
7.88681720765
7.26863900871
8.68557932156
4162.87063984
3.40326374548
5.54323836003
4.189110108
4297.53154138
121.833063944
109.593713155
185.037921941
164.980332428
4085.1563804
140.743438431
128.475620863
4269.47114939
10.7914434508
38.6901130462
38.0475124471
35.3456576367
37.8038102266
10.3044522601
7.33556272505
41.6926067268
44.2869736175
39.9195008965
40.5419434429
8.44313621294
4108.7165419
160.48256466
146.982111435
4372.70099125
3007.25547804
2989.47635549
3194.18707699
3187.87514119
4027.57840691
3101.32051012
3083.44001698
4206.21829864
4147.34648953
3128.83907193
3117.62109954
3037.03167243
3022.67051645
4329.72042526
118.109280199
800.76587347
818.817112971
760.523403734
782.270193326
115.378279887
177.842784249
1030.64840464
1052.33053305
983.116462221
1005.92482617
170.928593303
4057.80148488
3175.72114596
3159.6116241
137.45430178
877.997759943
898.020539599
837.674162868
858.503184908
134.178993091
4237.86098507
3066.63464779
3052.86149624
3147.76197603
3138.04248262
4129.0886537
156.727208879
950.030428694
965.543325998
917.171126616
933.86854168
151.957474307
17.8685458071
17.7395820943
40.1793202011
42.5358074006
19.3751275956
18.7624145499
20.3608697857
20.4577518424
43.3730799254
40.375168991
18.7464440481
18.9238537413
19.9454555376
20.0766906856
38.058005202
38.5398024265
22.0354640592
22.1777095313
23.8569319931
22.5737205023
37.8231727267
37.6505230559
22.3542489321
20.2324938551
0.0505624090638
0.0616964117376
0.156188016543
0.15760993611
0.379781175103
0.348210518526
0.750565626682
0.745684981655
1.25490058006
1.37783684098
1.33565878203
0.703327296103
0.223331085428
1.08336827032
2.10853611367
1.30423962102
0.352535761063
3.04761715384
1.65459031718
1.2851891444
0.466135151136
3968.05004459
3642.2138533
2.69560422185
2.86388514634
2.77537384434
2.85778204753
3810.57210557
8.03735896734
6.83053539218
8.94717678778
8.14633168408
3789.81564832
2.59380906225
3.42414433109
3.46659982588
3916.74981502
205.491467648
190.861877731
274.602571989
256.75251541
3690.10272502
229.697193489
211.556402617
3893.99380951
7.70145181518
49.2377662473
50.7777679569
44.7781887837
47.7649000936
7.13778483862
8.81034167019
53.3777515565
55.6655127782
50.0147349385
52.0453505943
8.40030470976
3711.3572245
251.194658819
233.622845124
3950.25539424
3205.95565689
3199.6209918
3310.5424209
3301.59803308
3656.72324843
3256.63801222
3252.07561335
3833.80287813
3766.99519616
3268.61094884
3262.08338601
3222.16557245
3212.76790558
3934.56917805
200.151140004
1097.57897463
1112.85701961
1069.59604582
1084.09729551
195.523909151
269.485727061
1312.15232045
1329.9071446
1279.03892227
1296.00752744
264.241263989
3671.76069211
3294.50504435
3290.18586934
225.68377838
1173.83528448
1189.76978628
1132.1236401
1154.50014323
219.511982632
3864.87590082
3248.07498154
3236.46082964
3282.13359339
3275.45483539
3740.42889206
245.416816718
1242.8089778
1261.02289122
1205.79810874
1223.387812
238.936687207
45.2337839979
20.3882521399
20.3835176081
21.7836498897
21.1941038696
46.2935430892
50.7437271266
22.8831364044
22.4416177868
22.6008866857
22.5533376586
50.9212439379
50.555139921
22.0053110995
21.7482107925
22.0735089182
21.734451731
51.3138013311
55.152677092
23.547241164
22.9276583158
23.6237089662
23.8467793336
55.5378097035
0.159504458685
0.416361955378
0.328937751206
0.756509639754
1.14267838992
1.13334770983
0.574909818168
0.167584405701
0.721420569254
1.53199050454
1.29348616085
0.338159085562
0.341089329008
2.62030282743
1.0672118427
1.07474909214
0.246216723157
3626.919246
3311.53401794
3.09006714486
3.11536604131
3.06986664244
2.65059311594
3471.46681945
9.0353433893
8.18432271727
9.46595677213
8.75893432915
3454.60579745
2.84344549758
3.41455100294
3.90859820017
3568.8384452
297.324071576
280.855423225
370.373121732
349.486151704
3392.94186751
322.06106915
302.801555019
3545.37102628
8.44101482833
58.8496606881
61.8508000371
55.7088269262
57.6588584034
8.09793509942
8.96775392043
62.6256454781
65.5699895872
61.95468422
62.091949217
8.85079746598
3415.52783038
343.480794319
327.796771912
3610.3622693
3318.07947715
3315.77570846
3336.11311728
3340.23178633
3329.04649348
3318.42338287
3316.87568463
3490.57580681
3441.77682751
3326.58921582
3321.50180728
3320.83626525
3318.98431626
3591.47710245
291.97417362
1380.4886379
1395.28559049
1349.18543455
1365.39791584
286.558092112
364.035753142
1579.6526753
1591.84264753
1541.25124761
1562.79907995
357.086190877
3359.27343143
3345.64134233
3347.4621662
316.650369022
1443.0400099
1459.79773483
1410.17676599
1426.09965264
309.997114695
3517.00652333
3318.54268745
3321.99722777
3340.26101675
3332.64552201
3431.50282931
338.233563608
1506.08779798
1522.35967125
1476.166248
1491.36884773
333.319456701
56.1469577087
22.4407126006
22.8677395213
22.801899517
22.7004779915
56.8722391486
60.8316265088
24.3269272237
23.3603296937
24.7874869055
24.6109788784
61.5723635692
61.9139643433
23.846778198
24.1832599551
23.3020271502
23.0651582945
61.79512926
63.7515530592
23.8703714182
23.1096428812
24.2427054611
24.0613700123
64.6469651115
0.923665813709
0.591674099952
1.0723216523
0.970228927663
0.48406494014
0.121185712355
0.508118004556
1.19875480664
1.21302177148
0.591033686111
0.137169368776
0.232194584547
3.36799454294
1.24261183259
1.44350367729
0.242280543779
3298.37760103
3048.04186899
3.92166373577
3.81603563348
3.67150359169
3.56374573982
3190.6280867
8.83033417718
9.11753943734
8.96576361942
8.47665204988
3181.81526701
3.77558878562
3.95200235547
4.05160792458
3248.97611737
400.353519503
376.017823148
476.696393104
459.392883173
3095.96896024
419.530160412
408.017074907
3228.04991752
9.10905413699
70.76244154
70.0807502756
66.0206160918
70.2869823868
9.34683335105
9.16318556049
75.3424321318
76.3899111012
69.962081627
72.953301543
8.78541157724
3128.14246926
448.354739821
423.625832071
3287.74664775
3333.43425462
3333.36074519
3306.26400414
3311.6342881
3058.3818982
3323.35463604
3328.94309046
3199.58310107
3171.00495836
3319.50239903
3320.21137763
3344.44881902
3341.04695117
3274.55405729
389.777382906
1632.43183724
1656.1204367
1603.55281366
1615.45570529
381.898554721
471.601413208
1806.71682631
1814.98304225
1782.16167514
1797.12339174
466.592334472
3071.9032939
3317.16695084
3322.31017899
416.047147594
1691.90682772
1699.77955037
1673.97922263
1684.46514177
412.514427965
3212.37173222
3337.61101209
3341.59512156
3327.6687515
3324.09140027
3153.72315119
439.727849365
1741.07963123
1761.44118627
1708.65617289
1722.70958054
430.988677727
67.0121143044
24.3902645372
24.1349096634
25.0820532956
24.8388368126
68.5193287511
70.9557390608
25.073678495
25.1498436749
23.859443104
24.5476119169
70.7597905163
70.8055121879
23.4880742858
23.2355517995
23.8899475035
23.055176146
71.8290378098
75.9935845384
24.7100849565
24.533192724
24.1531374973
24.5191490263
75.8668877628
1.97387968787
0.754941562245
0.909838404121
0.435237431116
0.128192928477
0.359577807393
0.952439033785
1.11658896008
0.662180467721
0.271440708944
0.101767187747
0.280259530133
3.84779103763
4.23786199139
1.60568258161
1.64948137888
0.271962740204
3039.02266226
2828.86385659
4.09594167424
2814.82176782
2631.66822925
4.64015359163
3.4788091595
3.32869926105
3.80443932683
4.27155705881
4.26670593583
4.40019207127
2929.49426513
8.53179871758
7.99094676466
8.99058798174
8.45763449445
2922.36847902
3.9483441193
3.75148821387
4.24994950766
2725.44862577
8.73719966669
9.28078017296
9.18289623039
8.38795384541
2716.76949473
4.52748422088
4.42102134464
4.46028107565
2990.95428049
513.029196097
483.051761997
611.439257966
586.555095412
2862.2651628
2774.84340688
648.460218374
619.78540406
757.472633627
723.795708261
2681.74970876
545.603387834
524.747588133
2967.32541689
77.705299752
86.2780942418
7.84380156108
8.91749904175
106.756437615
114.865886596
2877.74072973
576.921701906
551.231382854
680.145153179
657.33208182
2761.46912212
8.99727760142
129.301249497
135.720178706
117.331545492
127.152451985
9.50350397847
9.29174706868
152.063349667
161.85492737
137.526283995
146.966820286
9.37680466578
2695.76282744
709.989877433
686.464846536
3028.00710573
3298.4004519
3302.12073808
3234.41138453
3236.55866015
2840.41801387
2800.22575667
3232.78226014
3234.70404382
3170.18488194
3179.45312231
2649.16893402
3273.17531609
3277.90298692
2937.57919103
2912.92818828
3264.1456083
3268.84710073
3194.74619247
3205.9165785
2735.41872419
2709.57720056
3181.89432443
3187.25361304
3293.44297676
3296.41528851
3011.92897698
1823.35514572
1833.65245317
491.231631391
603.224916086
1960.59484467
1969.70277184
1945.36360183
1953.01344985
594.96986457
2850.70773258
3241.24283376
3246.86117787
3227.52714732
3229.87566631
2786.7112207
639.239854542
2001.71473122
2011.01854885
1980.95725568
1991.61529956
628.968492812
746.646104502
2097.27753798
2106.36471534
2071.86012761
2085.80202016
735.122832272
2665.60148734
3184.04918535
3180.5453754
2949.28201741
3283.0424662
3288.33038604
3253.4689451
3258.34691521
2897.56113613
673.606653943
2032.5854076
2036.67234277
2020.37987725
2027.87130627
666.162169108
2747.38352065
3215.18437707
3222.9710212
3177.59383805
3178.6971604
2703.62195083
699.799078532
2051.07499994
2058.68589706
2040.90348431
2045.63150092
692.75221534
501.487604092
1847.93102698
1863.79827011
8.15642994788
89.4622897228
96.1916135908
1880.2683198
1891.68995182
534.048173022
540.036110278
1896.92705279
1901.32996559
96.9806093544
103.950908051
8.81272019953
1906.51842343
1912.69046957
557.507870204
566.440098004
1922.17732549
1935.63199619
79.9692902462
23.4217401762
23.6808528292
25.0263033152
24.4772737683
82.9785333273
92.0843532524
26.4454884296
25.7046437323
27.4623274449
27.185701161
94.5021497842
98.4962987599
27.4916537509
26.9441910098
28.1462295814
27.439435913
101.018954751
109.418672377
28.9163710554
28.2027439651
29.9242391666
29.1735537809
112.189849334
120.975633671
32.2548207115
30.829046951
32.8476930272
32.6455967073
124.362676009
131.697809159
32.3515448465
32.6283556965
31.9118811426
31.8678719287
133.833908786
139.470680644
32.1772294814
31.5751452787
34.6874675125
32.8546863843
141.795091196
155.563119156
35.4946934085
35.2201639887
35.2816839651
35.3292805467
158.747798396
3.26665598418
0.730210292689
0.45969325576
0.0659823465056
0.251053288783
0.758247835159
1.0157074608
0.712703949111
0.415047640337
0.34215906066
0.228245596796
0.171962594496
0.124077797255
0.117560424362
0.0157535175475
0.312070902298
0.482561457208
4.60571678009
1.83065089135
2.10750604257
0.364062207896
2.25603958619
2.32823161545
0.587762827765
2615.42130038
2474.23789614
4.75486796764
4.33481250554
4.35470865128
4.70179192485
2569.82517748
9.37097191136
8.85080293718
9.6485309937
9.05499472233
2561.44930425
4.62768058498
4.44906650495
4.61824919421
2587.22825426
784.473544409
766.273565919
888.034631856
863.854404946
2483.75725276
818.997893722
790.081481292
2588.72105194
9.43819486119
172.541634301
185.177084471
164.223466037
169.677465315
9.09749274158
9.47208327553
197.778196013
208.542769777
186.570373212
193.997605827
9.39270101718
2505.73031837
852.234087908
826.199387209
2601.23331875
3143.92606927
3159.07053815
3061.37857984
3064.79285048
2470.82773711
3135.14588387
3134.21648316
2581.66942435
2550.42449916
3125.6973397
3131.97037493
3129.06025464
3134.71485277
2591.76784438
778.982149246
2121.08692041
2124.26984449
2112.60087582
2117.14438291
773.019453398
881.011481206
2188.01923343
2188.67929811
2181.75873403
2186.50651151
873.690527026
2473.82078073
3071.38352592
3082.69199338
809.939982591
2138.35053882
2147.54460701
2126.059962
2128.82071139
797.77886079
2592.48225952
3128.17413161
3126.18198644
3098.58138379
3114.85580322
2533.45962988
841.804359369
2164.92041163
2173.57462883
2153.13051567
2158.54379749
833.478958574
166.047326971
35.246160871
35.1517973589
36.0850402598
35.3337903773
167.779719289
177.101000598
38.6840979984
37.2154401421
38.8232287674
38.8289445641
182.285772882
188.313448903
37.8338540135
37.9889037934
38.636485699
37.9553834491
190.759393332
201.634564065
39.6431968768
38.8833460931
40.9737136499
40.234682969
205.02660737
9.66588656335
0.257526788897
0.12291372466
0.113762421572
0.206548578739
0.511713030237
0.61399881638
0.848681016502
0.929621523766
0.768728498545
0.736069982405
0.45772314426
0.255012419928
0.13148062169
0.0317035927639
0.109510722177
0.662882331931
4.65261763404
2.34990972045
2.39563416442
0.76151428108
2481.75213022
2334.42030977
4.66311421981
4.85247976668
5.07433606797
4.73025568015
2388.22174386
10.2643574237
9.55025545572
11.1372929078
10.3170190335
2383.93291932
4.61302003831
5.05814136575
5.27664345196
2450.42325803
926.960223589
895.907931294
1036.39930015
996.258377029
2384.37799707
954.554886461
938.270527332
2435.75360151
9.97401280542
225.362501927
231.73012048
211.959110057
222.370441258
9.95714925767
10.9198546984
251.804848702
267.731149097
233.859259181
245.835659443
10.5606578225
2393.33701382
983.812878861
958.936646388
2475.73142008
3075.72125101
3064.36481272
2997.27575981
2999.08321657
2352.14933972
3025.37321206
3033.35030687
2396.62835552
2384.18620324
3012.86755497
3018.92105846
3069.68171864
3077.02327019
2463.44045103
915.903339558
2210.79682725
2218.27232614
2190.97895327
2200.35162955
905.826086209
1027.65413322
2266.70451676
2274.78386666
2249.7527623
2260.46010566
1012.47869962
2366.85996063
3003.11434076
3005.44212585
950.67536814
2230.29447152
2232.80273346
2223.97132905
2227.69694661
945.848466442
2415.60098043
3045.87562761
3058.26664753
3003.40535195
3007.23896294
2390.07564571
973.078817484
2239.21016456
2241.79586542
2235.317
2237.61230218
964.80002989
215.868953335
41.756942835
40.9933048091
41.9271266938
41.6389794355
218.851415916
227.801660186
41.7948653682
41.5214407268
42.9017111278
42.1478466212
229.88421761
236.807539573
44.1898818768
43.5087054196
46.0379298971
44.6842425696
240.524657276
259.298163437
48.9576725489
47.2617975229
49.0198632027
49.2070520854
265.397594571
3.54184768668
2.27877089086
36.8365942798
30.2286846354
12.6006827608
20.3635164815
126.191849784
641.820531508
0.114192565501
0.544131513773
0.435689475274
0.775758867214
0.764343805504
0.499430722561
0.283858547689
0.153711753998
0.0705595314711
0.0379887491445
0.186961510357
0.820799643493
4.4843391637
2.44796570228
2.552722268
0.950485493279
2312.28359077
2235.94359691
3.89818324908
5.32531729925
5.75695912453
4.44091812787
2312.42279532
12.4586227651
10.9732846486
11.8913734207
13.464229492
2291.18211366
4.04659037948
5.64166931736
5.21385973994
2283.24876143
1058.86600067
1042.8574688
1151.89607468
1124.30909436
2213.70662818
1086.28486039
1064.40447957
2289.93694757
10.9499338212
274.363296045
286.063285371
268.588931613
272.489667109
10.8320184886
11.911398058
303.868494424
313.284002794
294.800147077
299.714541584
13.104992351
2228.87788275
1115.36357634
1103.37094143
2291.82062045
2984.35213118
2993.10805526
2865.70088379
2872.70679091
2216.80483643
2936.10887185
2927.5312777
2321.75968762
2275.00993369
2940.86429126
2938.60594499
2946.18950629
2966.23049663
2283.46959047
1052.66947455
2286.11114695
2284.75904852
2282.22925648
2286.198239
1047.77397332
1146.06768928
2315.02101516
2312.26581866
2315.68889141
2315.98723356
1138.31184297
2209.80553999
2888.08342457
2919.723381
1075.72527825
2276.52246086
2282.37994194
2282.62439648
2278.91810636
1069.88965916
2308.09174797
2927.9171125
2934.39503117
2938.60633658
2941.45886591
2253.03571588
1112.78557167
2305.15657159
2310.47857263
2292.44055604
2298.95079138
1110.31833081
269.614245484
47.0743065236
47.8296344607
46.1224122362
46.1933606206
271.008704524
276.923638384
46.5877868543
45.8331830804
50.2976093041
47.4111351074
279.507713064
297.764114822
52.4151833779
52.1387297592
52.1401716335
52.7523336812
298.448908045
309.087517798
51.3971538518
51.5269731561
51.5926328187
51.3916354749
311.703987169
0.676240026692
0.212076331881
846.76687462
748.990861058
0.467878137824
0.9532835068
812.373344423
6.1294314309
5.32466035824
0.50167909507
1.19032724459
632.05531042
0.859940654862
0.349686814735
736.765707931
0.277164812113
0.320957730054
0.21605562337
0.170857707919
0.379772837078
0.117481629775
833.348111671
738.849627733
750.295280061
3.77964854308
5.97544472792
800.342903735
2.67093596895
2.68269093555
0.727474762774
716.404412024
727.744419927
822.808397209
36.060226365
35.4088220567
4.72181867958
5.5631352192
35.8690529105
35.5252947617
785.690377137
693.216692552
705.54152888
663.502090357
677.101759421
765.553273902
0.520277580436
2.77327229257
2.10317485705
703.482176054
4.25875447766
3.65927344787
4.66303023129
30.7698048416
29.491126386
34.8630359163
33.2946619528
5.42398373631
1.75468554143
3.03278049012
686.552199263
0.31557764901
0.3250099661
0.289583898002
534.635323621
3.74586273249
0.669551282174
1.68886807112
1.55172178255
0.509461144455
727.16003498
640.616965411
652.499362058
619.272240018
630.173796962
716.099205956
29.4370324478
29.7275695125
4.90288252711
4.84391528525
29.3011482804
28.3273710474
666.444337596
590.220098543
606.01636326
566.198957079
578.212521201
651.911866451
584.604026303
2.03601549758
2.56403293997
0.730515783284
0.886280993232
0.826878491244
26.3509742718
23.8303550219
1.61258464271
619.898957882
542.664397681
553.842362414
0.39686905848
22.946886503
23.9268888557
11.5694370607
2.37096935364
518.843618849
0.227618015918
0.134130529866
0.342809161823
1.35203085493
1.66901327334
0.656325184291
3.65857431925
3.52455860983
567.97586543
1.3708452305
1.27936873853
1.00457244688
512.652846477
529.477015424
604.415454906
23.4049900207
22.0302229248
1.35960012208
0.896238751006
20.3968903802
17.9870347213
557.449461968
481.759091878
497.044376178
445.578148745
463.457027434
546.124658253
2.67178269854
1.0797479195
5.20648254649
472.379149083
21.1738235797
11.4052180962
17.2598465797
19.9737881134
4.76829553086
72.7268958917
48.9946973383
445.662435722
0.325345748903
0.459722181698
1.16521150503
7.38945738708
4.6358200578
1.1645740935
500.701143206
396.794772441
421.637264076
4.35221603663
20.1406057593
22.0856555051
343.058641977
371.935466768
487.10547618
23.663265229
28.2202638078
14.7790117905
19.0760617207
40.603049827
52.2818744745
403.360234776
209.429143899
276.764315471
865.0111025
0.232382078567
0.754896435928
0.780485336132
0.52766682231
0.305766413871
0.164847148995
0.0748743372041
0.0433694127366
0.0935180123892
0.269186827441
1.03636404107
3.41145816364
2.58847076872
2.44176044257
1.09338251836
2252.3575556
2084.43188117
2.7413001416
5.35320322104
5.22066079289
3.11792893766
2126.67274993
13.9978015318
13.521463531
14.6278613723
14.4870273029
2129.81982886
2.6605661614
4.8894667774
4.80232530955
2211.64914007
1190.63811387
1156.70359527
1270.24485818
1246.72266921
2157.63506992
1217.54581313
1194.85493266
2188.36762289
14.8886871335
332.925231358
345.26735627
313.91562364
329.477792985
14.6573295052
15.3827529397
367.857374114
388.252982936
348.422947818
360.721414827
15.4993665963
2168.58764074
1239.73883119
1223.37396109
2251.51068739
2877.14050054
2866.58780657
2817.20048202
2829.28865902
2122.24322833
2826.82121693
2855.9066159
2133.3791582
2146.65259612
2803.24456243
2811.26587645
2884.99312842
2883.1969626
2229.48351772
1180.38643907
2328.00882367
2333.24346341
2311.66399524
2315.95792318
1163.42922612
2342.53603525
2345.67730357
1252.62499698
2143.77206366
2831.09906983
2822.90404894
1208.58566561
2339.80924093
2340.40929165
2334.85608129
2336.82968809
1199.16671926
2155.11393077
2878.79335462
2884.4316462
2807.82027602
2799.8840054
2165.65090097
1233.77500742
2333.20091097
2336.09530586
2339.14782185
2335.55692787
1228.69805003
1260.41927869
2349.18542744
2356.94254804
0.184678374009
0.265583327906
1069.45781274
316.69557437
53.6688122912
51.6560336818
56.1830572596
55.5774584899
325.111646395
977.027032226
1.31776401773
1.64292679373
1023.90266578
7.25092725698
8.69932027726
1.15501882146
1.32686429014
962.414894781
0.508504600856
0.541104189888
0.345751375889
336.799542922
56.7598137684
56.7488336523
0.564802361388
0.480943505083
0.245296663747
1056.46135008
935.440173681
946.637134231
7.63347989972
6.98486358037
1011.42760977
4.58231525554
4.13473886044
1.55757552031
908.409526262
921.744863043
1039.74069556
52.9455571977
51.7709068922
8.30384266422
56.644344312
56.4995716875
341.566148057
864.127636486
875.161138955
989.327321446
1.43155103481
3.70514912166
3.90492895933
7.91826028206
49.7767453681
48.4782982655
917.485680993
5.75313149622
7.24454761737
7.91900355517
47.2379896271
46.3889042205
47.937659271
47.7598308641
7.26025907676
1000.43660052
886.705344959
897.695837056
5.89300364387
6.79487284592
907.12183795
0.140228793082
0.351174874739
0.185650933061
3.57185142768
3.02103345547
1.22681059075
943.82810162
836.598552447
851.922952276
813.735060283
824.353318348
929.32386027
44.8507850273
42.754419218
6.54073389414
765.362016356
779.572193524
882.424329013
352.123733708
58.844784648
57.8054227646
1.17611997069
3.27649747697
3.12577741128
6.08842821837
41.9956158211
41.5658925117
41.6817710727
40.8589516049
6.7715471156
895.517838469
790.979915493
802.08442875
6.4639423595
39.8396143575
37.5737936271
63.9899544786
61.2084025484
355.704368069
375.379532105
68.3950761717
66.382552611
68.922329706
69.0648479697
382.795521484
1081.14070809
0.537447901735
0.741463389587
0.575895106122
0.337591541939
0.196456147175
0.113872896556
0.0530230672322
0.0537070254274
0.11021103567
0.228818130065
0.969012295563
3.1264816062
2.35773729552
2.50910860398
0.979054523088
2059.71185769
1984.99377268
3.49516154099
2041.45199633
18.6074166595
14.3618698097
19.3556342797
16.2472533528
2029.36844156
3.33926593215
5.62735428456
5.80539756932
2061.05800033
1294.56857611
1279.49472687
1356.84750496
1348.6539246
1999.8649833
1312.79172972
1294.4129187
2074.26752089
17.8284916447
441.31361222
459.178508094
2003.81789522
1340.91267224
1319.85585035
2052.7002494
2763.77767686
2794.07788725
2712.29257985
2702.82542754
1992.25337313
2772.44223503
2770.2299893
2055.28196596
2016.77547988
2760.78482046
2769.64622632
2741.47833486
2747.40300566
2053.10691554
1356.4145432
2383.30205456
2382.07630279
1997.24515771
2705.08359358
2711.45661865
2073.66610111
2758.95153348
2744.42759169
2721.59490089
2739.52238881
2009.06893049
429.74792108
439.519449164
16.4663911966
1333.12064594
2375.31709183
2376.27736644
2376.4714044
2377.03340066
1326.41456838
2379.4736726
2382.58348429
1354.23266909
5.61101124738
5.92332778777
3.22863971337
392.258483708
395.764070323
16.438389255