/*--------------------------------*- C++ -*----------------------------------*\
  =========                 |
  \\      /  F ield         | OpenFOAM: The Open Source CFD Toolbox
   \\    /   O peration     | Website:  https://openfoam.org
    \\  /    A nd           | Version:  8
     \\/     M anipulation  |
\*---------------------------------------------------------------------------*/
FoamFile
{
    version     2.0;
    format      ascii;
    class       volScalarField;
    location    "0";
    object      mixAlpha;
}
// * * * * * * * * * * * * * * * * * * * * * * * * * * * * * * * * * * * * * //

dimensions      [1 -1 -1 0 0 0 0];

internalField   nonuniform List<scalar> 
50271
(
1.42013053863e-10
1.42013053921e-10
1.42013054168e-10
1.42013055182e-10
1.42013059359e-10
1.42013076565e-10
1.42013147463e-10
1.42013440411e-10
1.42014651352e-10
1.42019640726e-10
1.42040090224e-10
1.42025277226e-10
1.42037792015e-10
1.42068435455e-10
1.4367675976e-10
1.42192263597e-10
1.65856746192e-10
1.93956949315e-10
1.44510749943e-10
1.42115818123e-10
1.44571960595e-10
1.42334187281e-10
1.42701631744e-10
1.42254412814e-10
1.42483923075e-10
1.8327851564e-10
1.4573814847e-10
1.4204624367e-10
1.42969902673e-10
1.45660691765e-10
1.84240007019e-10
1.42737153737e-10
1.45542034462e-10
1.43470526711e-10
1.75029182303e-10
1.4702494024e-10
1.42259805645e-10
1.41676666321e-10
1.42311704586e-10
1.90548446801e-10
1.44259275909e-10
1.44922213353e-10
1.44620933432e-10
1.43194409331e-10
1.4251547156e-10
1.43009892801e-10
1.44333542572e-10
1.46794726777e-10
1.77223276778e-10
1.44584552585e-10
1.46527798669e-10
1.45093541839e-10
1.42071570586e-10
1.46117824616e-10
1.4262954466e-10
1.43442856403e-10
1.42719691706e-10
1.42362409869e-10
1.44396023843e-10
1.43307723203e-10
1.44330532954e-10
1.88391010571e-10
1.42481351122e-10
1.43711955268e-10
1.43250983881e-10
1.44347191437e-10
1.4335658039e-10
1.44723732448e-10
1.45034995445e-10
1.44461771593e-10
1.44199221346e-10
1.45002665781e-10
1.44269568886e-10
1.70949928032e-10
1.48584219886e-10
1.45852551185e-10
1.4397063458e-10
1.43873947132e-10
1.93165310653e-10
1.43075679358e-10
1.43678516998e-10
1.81406412498e-10
1.45455880292e-10
1.46004298884e-10
1.45929951839e-10
1.4551042502e-10
1.44976237001e-10
1.45423169407e-10
1.85577705233e-10
1.43048205727e-10
1.42827369315e-10
1.45472783693e-10
1.4528098313e-10
1.45102638937e-10
1.47046060071e-10
1.48228559392e-10
1.72747740119e-10
1.46028759741e-10
1.47209975904e-10
1.47059428506e-10
1.43006092654e-10
1.46034891354e-10
1.43667963328e-10
1.41863097219e-10
1.41555900227e-10
1.41336443865e-10
1.4203880291e-10
1.41862244607e-10
1.42129360389e-10
1.91655697904e-10
1.43863711317e-10
1.43722075256e-10
1.44915423034e-10
1.44839042444e-10
1.4466788055e-10
1.45195093698e-10
1.44102497567e-10
1.43308453072e-10
1.46341002444e-10
1.45243907357e-10
1.46133572023e-10
1.78453751971e-10
1.44584687763e-10
1.4572062008e-10
1.46361129149e-10
1.4631845955e-10
1.45701362511e-10
1.45893436453e-10
1.46217892026e-10
1.45955104569e-10
1.42618347167e-10
1.42214528101e-10
1.42028104165e-10
1.44380994349e-10
1.42889718329e-10
1.44177536123e-10
1.43625798337e-10
1.43344132443e-10
1.87234224484e-10
1.42684277859e-10
1.42249318762e-10
1.42183927489e-10
1.42792729027e-10
1.42434993711e-10
1.42964944587e-10
1.4508982922e-10
1.45245724792e-10
1.45121914161e-10
1.44924800132e-10
1.45188531405e-10
1.45151626708e-10
1.4491044421e-10
1.44614112324e-10
1.4488576806e-10
1.42013059562e-10
1.42013068427e-10
1.4201310137e-10
1.42013207588e-10
1.42013553481e-10
1.42014674146e-10
1.42018292709e-10
1.42029881389e-10
1.42066795479e-10
1.4218421687e-10
1.42530124252e-10
1.42918852449e-10
1.43912865414e-10
1.43502885749e-10
1.43086423926e-10
1.43058802161e-10
1.95655799396e-10
2.25842593524e-10
1.42318873147e-10
1.43032999607e-10
1.42448883292e-10
1.4320170184e-10
2.08774652447e-10
1.42194413946e-10
1.42689838536e-10
1.41981923998e-10
1.42096912229e-10
2.10848781559e-10
1.4265657734e-10
1.42125076471e-10
1.42055021615e-10
2.01086623757e-10
1.41440001173e-10
1.41583388679e-10
1.40989321837e-10
1.41057001836e-10
2.19266426252e-10
1.4123396215e-10
1.41374915338e-10
2.02844200029e-10
1.42276063148e-10
1.41829505084e-10
1.41792280517e-10
1.42158286967e-10
1.41973486963e-10
1.42381024417e-10
1.41999657265e-10
1.41583065839e-10
1.4154707736e-10
1.41726101238e-10
1.41649071469e-10
1.42045047008e-10
2.17228085436e-10
1.41142126146e-10
1.41226455377e-10
1.97501860395e-10
1.44367575275e-10
1.44151988632e-10
1.49083255256e-10
1.4859292901e-10
2.23457453921e-10
1.45916437999e-10
1.45695884938e-10
2.0677082039e-10
2.13127363746e-10
1.46826920288e-10
1.46286013623e-10
1.44843133991e-10
1.4463863473e-10
1.9934822503e-10
1.41481355125e-10
1.41123313552e-10
1.41076010076e-10
1.41215553206e-10
1.41156397837e-10
1.41505531192e-10
1.41001104675e-10
1.40661805407e-10
1.40657799907e-10
1.40700449096e-10
1.40665152354e-10
1.4102358061e-10
2.21271924371e-10
1.48120119881e-10
1.47680585453e-10
1.41264198349e-10
1.40887470428e-10
1.40841317166e-10
1.41009871725e-10
1.40910651505e-10
1.41274598811e-10
2.04792802683e-10
1.45401970601e-10
1.45169268335e-10
1.47403223487e-10
1.47135311696e-10
2.15202148061e-10
1.41187308226e-10
1.40824008282e-10
1.40783120774e-10
1.40836894101e-10
1.40842936195e-10
1.4122085826e-10
1.42013125647e-10
1.42013208225e-10
1.420135189e-10
1.42014411454e-10
1.4201700159e-10
1.42024355485e-10
1.42044743471e-10
1.42099844333e-10
1.42240973563e-10
1.4250116945e-10
1.42685344954e-10
1.42863655519e-10
1.4228188112e-10
1.42173641724e-10
1.41967607878e-10
1.4253473765e-10
1.42167065811e-10
1.42575729766e-10
1.42009895283e-10
1.42012685129e-10
1.42099988945e-10
2.28004003406e-10
2.60089744146e-10
1.41974317619e-10
2.62062814581e-10
2.89544514726e-10
1.41985455387e-10
1.42015645117e-10
1.41970242475e-10
1.42022886452e-10
1.41968383556e-10
1.41999524305e-10
1.41971635184e-10
2.42452918713e-10
1.4195945218e-10
1.41975493686e-10
1.41922132191e-10
1.41945829109e-10
2.44558190523e-10
1.41971170052e-10
1.4193105188e-10
1.41944267863e-10
2.74804195221e-10
1.41880276382e-10
1.41926109937e-10
1.416775693e-10
1.41848417944e-10
2.76748872379e-10
1.41986054586e-10
1.42029015709e-10
1.42028628492e-10
2.34073057555e-10
1.40900767174e-10
1.40977782087e-10
1.40833009359e-10
1.40834356381e-10
2.53295904467e-10
2.67763814162e-10
1.40812954821e-10
1.40825868342e-10
1.40721753972e-10
1.4075670022e-10
2.84837312219e-10
1.40837949656e-10
1.40887631736e-10
2.36276174875e-10
1.41965710346e-10
1.41441940192e-10
1.41406977231e-10
1.41509851772e-10
1.41469956735e-10
1.41968534737e-10
1.41920833976e-10
1.4134776157e-10
1.41346946448e-10
1.41384705212e-10
1.41355010317e-10
1.41921297228e-10
2.51468561959e-10
1.40840583941e-10
1.40839873638e-10
1.4078102941e-10
1.40805508275e-10
2.69463406222e-10
1.41905408387e-10
1.41296582789e-10
1.41270318363e-10
1.41337005213e-10
1.41320916002e-10
1.41917001986e-10
1.4172372574e-10
1.41069738951e-10
1.41037530613e-10
1.41233161945e-10
1.41094331328e-10
1.41786157912e-10
2.82340573886e-10
1.40767900769e-10
1.40768821185e-10
2.29873113053e-10
1.50011736217e-10
1.49574864334e-10
1.58097787874e-10
1.57369250458e-10
2.57608451662e-10
2.63647622877e-10
1.59279862315e-10
1.58745167574e-10
1.68592807234e-10
1.6795494268e-10
2.88039458607e-10
1.53073929746e-10
1.52537110207e-10
2.40491053345e-10
2.47021059311e-10
1.54291844383e-10
1.53634456916e-10
1.63106050699e-10
1.62331223972e-10
2.72593241871e-10
2.78275884666e-10
1.64364717797e-10
1.6380378613e-10
1.50959854308e-10
1.50459593344e-10
2.31875438026e-10
1.40926522451e-10
1.40647309166e-10
1.40645608766e-10
1.40659963013e-10
1.4065785838e-10
1.40955249078e-10
1.40835686165e-10
1.4078982502e-10
1.40807151146e-10
1.40756408212e-10
1.40771416795e-10
1.4083429205e-10
2.55271893424e-10
1.56693456824e-10
1.56111568458e-10
1.60637279717e-10
1.59900528559e-10
2.65547816468e-10
1.40814424233e-10
1.40832271051e-10
1.40870882538e-10
1.40818887429e-10
1.40819590601e-10
1.40813976029e-10
1.4071952799e-10
1.41474582553e-10
1.41614950516e-10
1.41151298415e-10
1.41328790843e-10
1.40739660285e-10
2.86621610073e-10
1.67325697269e-10
1.66620406719e-10
1.40850580999e-10
1.40638974633e-10
1.4064983009e-10
1.40642178079e-10
1.40636388341e-10
1.40865661154e-10
2.38422370325e-10
1.51983779068e-10
1.51454434016e-10
1.55557681225e-10
1.5495430001e-10
2.49498128252e-10
1.40844366984e-10
1.40735218026e-10
1.40748358548e-10
1.40672366655e-10
1.4071064172e-10
1.40843696044e-10
1.40788976611e-10
1.4089542685e-10
1.40922551176e-10
1.40885934641e-10
1.40886556965e-10
1.40791859969e-10
2.70793753814e-10
1.61734862077e-10
1.61260556865e-10
1.65772149952e-10
1.64978330079e-10
2.79995329731e-10
1.40768765439e-10
1.40951087551e-10
1.4101617534e-10
1.40931919008e-10
1.40932398429e-10
1.40753303408e-10
1.4139172315e-10
1.41385145268e-10
1.41034720304e-10
1.41048490638e-10
1.41380744165e-10
1.41373219092e-10
1.41347017722e-10
1.41305094805e-10
1.41152131912e-10
1.42013542812e-10
1.42013939087e-10
1.42015536475e-10
1.42019629361e-10
1.42030244383e-10
1.42056803941e-10
1.42120391039e-10
1.42259558932e-10
1.42261738726e-10
1.42372406758e-10
1.42424425513e-10
1.42415225529e-10
1.42500036078e-10
1.42406192568e-10
1.42482830122e-10
1.42194013e-10
1.42042076235e-10
1.41991377372e-10
1.42016397467e-10
1.42037625597e-10
1.42039193292e-10
2.91642845885e-10
3.22399187825e-10
1.42063681374e-10
1.42044611125e-10
1.42073900141e-10
1.42001538365e-10
3.07096171785e-10
1.41747769149e-10
1.41676150164e-10
1.41692225966e-10
1.41744245797e-10
3.09085665616e-10
1.42031050069e-10
1.421165269e-10
1.421520827e-10
2.98942046824e-10
1.40718435062e-10
1.40735514245e-10
1.40555576918e-10
1.40609646684e-10
3.15955065027e-10
1.40685865123e-10
1.40720803327e-10
3.01146523979e-10
1.41727730084e-10
1.4107030109e-10
1.41027248229e-10
1.41049425423e-10
1.41070595971e-10
1.41698845342e-10
1.41717470003e-10
1.40932959687e-10
1.40881019188e-10
1.40996772449e-10
1.40940258775e-10
1.41738278943e-10
3.14088271554e-10
1.40616122204e-10
1.40665564964e-10
2.94076558307e-10
1.70250617222e-10
1.69371203457e-10
1.81900544313e-10
1.80945419056e-10
3.20328504112e-10
1.75253366041e-10
1.7441864259e-10
3.05066800379e-10
3.10884377721e-10
1.76874180576e-10
1.76094170266e-10
1.7202568883e-10
1.71123978794e-10
2.96493969501e-10
1.40727882801e-10
1.42189048296e-10
1.42365855521e-10
1.41815140794e-10
1.41996375565e-10
1.40736770682e-10
1.40578181085e-10
1.44751854499e-10
1.45031179615e-10
1.44229360372e-10
1.44477464831e-10
1.40597445662e-10
3.18102305326e-10
1.79970050963e-10
1.79064608517e-10
1.40705459174e-10
1.43000889462e-10
1.43198406526e-10
1.42662783874e-10
1.42890400648e-10
1.40719337887e-10
3.03150554417e-10
1.73667562265e-10
1.72864333612e-10
1.78280015936e-10
1.77585996844e-10
3.12493807371e-10
1.40620962514e-10
1.43819131221e-10
1.44017232462e-10
1.43353486121e-10
1.43594322275e-10
1.40638184469e-10
1.41403664922e-10
1.41416705555e-10
1.40950731558e-10
1.40922538647e-10
1.41374859379e-10
1.41387911382e-10
1.41342183306e-10
1.41358157063e-10
1.40906596986e-10
1.40970450323e-10
1.41430009604e-10
1.41446729433e-10
1.41470712267e-10
1.41480612146e-10
1.41049202605e-10
1.41063204876e-10
1.41484883829e-10
1.41481810883e-10
1.41468639018e-10
1.41446074407e-10
1.41070326124e-10
1.41062631598e-10
1.41421023506e-10
1.41403998006e-10
1.42015380279e-10
1.4201660898e-10
1.42024096047e-10
1.42022454042e-10
1.42040690696e-10
1.42035683366e-10
1.42073545434e-10
1.42066532417e-10
1.42142102647e-10
1.42133948708e-10
1.42251644049e-10
1.42338785975e-10
1.4236716244e-10
1.42358806792e-10
1.42235715561e-10
1.42078913378e-10
1.42050659375e-10
1.42082997183e-10
1.42066145147e-10
1.42075899242e-10
1.42071749747e-10
3.2401398379e-10
3.4729848701e-10
1.42066106206e-10
1.42152440344e-10
1.42150442701e-10
1.42079634756e-10
3.34894550721e-10
1.41626081514e-10
1.41669891018e-10
1.41563353952e-10
1.41613500325e-10
3.3623753695e-10
1.42070653998e-10
1.42145896802e-10
1.42148744959e-10
3.28260589813e-10
1.4053336984e-10
1.40530575527e-10
1.40510866811e-10
1.40507849658e-10
3.43341818534e-10
1.40520580649e-10
1.40541177691e-10
3.30243704919e-10
1.41633899482e-10
1.40833147285e-10
1.40796561849e-10
1.40856746913e-10
1.40833980858e-10
1.41645107783e-10
1.41585015353e-10
1.40756316177e-10
1.40725365765e-10
1.40781713663e-10
1.40751318511e-10
1.41601364693e-10
3.41809847251e-10
1.40496151508e-10
1.40500930755e-10
3.25309750081e-10
1.8342298908e-10
1.82722981204e-10
1.94647891333e-10
1.93881578762e-10
3.45914695591e-10
1.88131594845e-10
1.87444238515e-10
3.3366247338e-10
3.37931220563e-10
1.89738149788e-10
1.88859547026e-10
1.84867736435e-10
1.84107366106e-10
3.26648102987e-10
1.40527765356e-10
1.45766064976e-10
1.46009142512e-10
1.45296124589e-10
1.45535074139e-10
1.40524303739e-10
1.4052489564e-10
1.48989347342e-10
1.49246356962e-10
1.48458324821e-10
1.48736697461e-10
1.40523888349e-10
3.44616525032e-10
1.93171107203e-10
1.9244766356e-10
1.40542342791e-10
1.46823480572e-10
1.47045489344e-10
1.4627609259e-10
1.46564155111e-10
1.40547419466e-10
3.32183322334e-10
1.86649651417e-10
1.85744491384e-10
1.91637598612e-10
1.90713201518e-10
3.39885490436e-10
1.4049671249e-10
1.47883583506e-10
1.4818053163e-10
1.47281952581e-10
1.47569319532e-10
1.4050139919e-10
1.40841908043e-10
1.41313300623e-10
1.41324910186e-10
1.41293633126e-10
1.4130082853e-10
1.40837285477e-10
1.40827393526e-10
1.41282031538e-10
1.41289156682e-10
1.41263053796e-10
1.41273250462e-10
1.40814694061e-10
1.40769956652e-10
1.4124311439e-10
1.41253021272e-10
1.41224195706e-10
1.41230100345e-10
1.40756462731e-10
1.40757171284e-10
1.41213690564e-10
1.41220512024e-10
1.41178589947e-10
1.41198575784e-10
1.4074736489e-10
1.42021798145e-10
1.42040407808e-10
1.42041546319e-10
1.42079998292e-10
1.42145803417e-10
1.42241482848e-10
1.42311592653e-10
1.42336606705e-10
1.42331905389e-10
1.42249695739e-10
1.42124634112e-10
1.42071056417e-10
1.42078417805e-10
1.42062097787e-10
1.4206984617e-10
1.42055111045e-10
1.42073647029e-10
3.48705210279e-10
3.668977226e-10
1.42037693886e-10
1.42148161579e-10
1.42143582543e-10
1.42053658012e-10
3.56892621423e-10
1.41484211546e-10
1.41538656216e-10
1.41451463875e-10
1.41475378154e-10
3.58005927793e-10
1.42047843945e-10
1.42149042962e-10
1.42152303162e-10
3.5236890818e-10
1.40478819146e-10
1.40484941618e-10
1.40556915264e-10
1.40513716614e-10
3.62835659323e-10
1.40532097184e-10
1.40492541559e-10
3.53506013382e-10
1.4150011646e-10
1.40662185338e-10
1.40658608847e-10
1.40693762941e-10
1.40659399125e-10
1.41519445893e-10
1.41461965114e-10
1.40610538688e-10
1.40608920884e-10
1.40646811085e-10
1.40611821759e-10
1.414693511e-10
3.6141530172e-10
1.40508150818e-10
1.40527501987e-10
3.50032603591e-10
1.96244284632e-10
1.95461070785e-10
2.07326557338e-10
2.06542264166e-10
3.6578288077e-10
2.00836462684e-10
2.0008094511e-10
3.5577090707e-10
3.59065351323e-10
2.02255455975e-10
2.0157158455e-10
1.97733488341e-10
1.97004504167e-10
3.51233208817e-10
1.40476012891e-10
1.50059420867e-10
1.50325500444e-10
1.49515012439e-10
1.49787336523e-10
1.40477783677e-10
1.40545446937e-10
1.53628627069e-10
1.53950902048e-10
1.5289366757e-10
1.5325425624e-10
1.40528941991e-10
3.64346313308e-10
2.055410242e-10
2.04559619789e-10
1.40528770197e-10
1.51236453011e-10
1.51516571564e-10
1.50611905554e-10
1.50929473597e-10
1.40518552136e-10
3.54609507188e-10
1.99286931707e-10
1.98489601036e-10
2.03699582901e-10
2.02949665394e-10
3.60161474968e-10
1.40508720114e-10
1.52304644159e-10
1.52577868805e-10
1.51791046826e-10
1.52043184538e-10
1.40515574565e-10
1.40674447079e-10
1.41136954906e-10
1.41151933467e-10
1.41114099844e-10
1.41122860796e-10
1.40663577499e-10
1.40666336665e-10
1.41103507429e-10
1.41107770863e-10
1.41086921377e-10
1.41095480862e-10
1.40664465817e-10
1.40629888518e-10
1.41066635531e-10
1.41074860719e-10
1.41050423619e-10
1.41057298201e-10
1.40617607504e-10
1.40613738825e-10
1.41046105311e-10
1.4104701906e-10
1.4103032277e-10
1.41040033574e-10
1.40613486084e-10
1.42083213974e-10
1.42076758175e-10
1.42149559758e-10
1.42233565779e-10
1.42294115341e-10
1.42313288148e-10
1.42311877277e-10
1.42253579067e-10
1.42145121549e-10
1.42084792706e-10
1.42064845992e-10
1.42065064605e-10
1.42039437654e-10
1.42036234659e-10
1.42019397724e-10
1.42055457885e-10
3.67652712198e-10
3.80585338911e-10
1.42035051336e-10
1.42159048565e-10
1.42157515381e-10
1.42035890618e-10
3.73044843691e-10
1.41394409367e-10
1.4143686878e-10
1.41365314796e-10
1.41389710891e-10
3.73329250895e-10
1.42038289177e-10
1.42164120003e-10
1.42157376515e-10
3.70684680364e-10
1.40610780955e-10
1.40562368707e-10
1.40818455489e-10
1.40681589911e-10
3.78778889789e-10
1.40589682584e-10
1.40612367975e-10
3.71777767713e-10
1.41403130913e-10
1.40593777066e-10
1.40548680507e-10
1.40602193955e-10
1.40601409786e-10
1.41422814881e-10
1.41379798818e-10
1.40567464926e-10
1.40539904534e-10
1.40547738606e-10
1.40552612702e-10
1.41386809036e-10
3.77293211758e-10
1.40638047678e-10
1.40592518874e-10
3.6846070091e-10
2.08554827944e-10
2.07938147706e-10
2.18413605449e-10
2.17947427724e-10
3.80258291936e-10
2.12453889832e-10
2.12077149489e-10
3.72871625904e-10
3.74119532319e-10
2.13755369927e-10
2.13001541614e-10
2.1022614047e-10
2.09323025204e-10
3.69466054295e-10
1.40595899321e-10
1.54832563905e-10
1.552004653e-10
1.54225310973e-10
1.54501791686e-10
1.40572818785e-10
1.40733357844e-10
1.58530683635e-10
1.5877053154e-10
1.57962482008e-10
1.58276311837e-10
1.4069307556e-10
3.79732277147e-10
2.17422955822e-10
2.16706669745e-10
1.40602698394e-10
1.5597275995e-10
1.561604701e-10
1.55523590796e-10
1.55772589086e-10
1.40613971987e-10
3.72569336599e-10
2.11638097964e-10
2.11048237743e-10
2.15697973364e-10
2.14692091751e-10
3.7555174699e-10
1.40616263841e-10
1.5714322581e-10
1.57535924899e-10
1.56419515092e-10
1.56753456155e-10
1.40602238003e-10
1.40602970473e-10
1.41012813101e-10
1.41019433482e-10
1.40996020204e-10
1.41005199804e-10
1.40604229437e-10
1.40579751755e-10
1.40969876407e-10
1.40983966685e-10
1.4094721819e-10
1.40956037264e-10
1.40561879199e-10
1.40546230586e-10
1.40942230765e-10
1.40945986391e-10
1.40939080854e-10
1.40936936297e-10
1.40544521011e-10
1.40566896328e-10
1.40936347323e-10
1.40940475137e-10
1.40906024901e-10
1.40923836316e-10
1.40556379217e-10
1.42165695339e-10
1.42139940446e-10
1.42224123618e-10
1.4227275351e-10
1.42293938229e-10
1.42295227555e-10
1.42253973447e-10
1.42162192543e-10
1.42094592817e-10
1.42074117443e-10
1.4205932787e-10
1.42044945784e-10
1.42034955055e-10
1.42021316213e-10
1.42003115087e-10
1.41982154902e-10
1.42032542974e-10
3.80980155649e-10
3.93416562341e-10
1.42014825736e-10
3.94311959559e-10
4.06230760582e-10
1.42034050289e-10
1.42144978496e-10
1.42124866615e-10
1.4202742398e-10
1.42082509227e-10
1.42068057623e-10
1.42022240585e-10
3.87877152609e-10
1.41285994461e-10
1.4134107476e-10
1.41271491826e-10
1.41284592062e-10
3.87943229065e-10
1.42024429091e-10
1.42112441717e-10
1.42096035161e-10
3.99333751194e-10
1.41233752363e-10
1.41262851224e-10
1.41207718695e-10
1.41229319655e-10
3.99910938265e-10
1.42031382636e-10
1.42051466808e-10
1.4203046068e-10
3.84140133121e-10
1.41181110074e-10
1.40866989818e-10
1.42573452056e-10
1.42204986602e-10
3.90309507085e-10
3.96654929312e-10
1.4307691154e-10
1.42695006918e-10
1.44753516345e-10
1.44292630727e-10
4.03053667505e-10
1.4164763473e-10
1.41314483858e-10
3.8584623661e-10
1.40521426541e-10
1.40510786445e-10
1.41314833854e-10
1.41276076421e-10
1.40537548323e-10
1.40548448377e-10
3.89217226386e-10
1.42072447289e-10
1.41727434837e-10
1.43578694586e-10
1.43196147118e-10
3.97354201785e-10
1.41240328296e-10
1.40550693591e-10
1.40533104024e-10
1.4055961748e-10
1.40562293526e-10
1.41252546149e-10
1.41219821614e-10
1.4057563299e-10
1.40556923874e-10
1.40533019479e-10
1.40572813903e-10
1.41228589117e-10
4.02034146511e-10
1.44128484014e-10
1.43699358826e-10
3.81597761512e-10
2.19590926884e-10
2.18924285058e-10
2.2973133094e-10
2.290335438e-10
3.92484772554e-10
3.95138273624e-10
2.31168141754e-10
2.3045359356e-10
2.40920714055e-10
2.40048011681e-10
4.05227313193e-10
2.24387914697e-10
2.24039848658e-10
3.87724686942e-10
3.8802054626e-10
2.25177477406e-10
2.24723969718e-10
2.35095139399e-10
2.34473490574e-10
3.98721583596e-10
4.00512051282e-10
2.36227975144e-10
2.35663683702e-10
2.21479837151e-10
2.20461443836e-10
3.8269083936e-10
1.59034124194e-10
1.59364799385e-10
1.40943548146e-10
1.42458604966e-10
1.6412589389e-10
1.64465363972e-10
1.63369268278e-10
1.63763317168e-10
1.42333914095e-10
3.91434582395e-10
2.2828491157e-10
2.27473210795e-10
2.32502348653e-10
2.31869282624e-10
3.95947164732e-10
1.42957810224e-10
1.6555480119e-10
1.65895904124e-10
1.64816326057e-10
1.65186997567e-10
1.4282692876e-10
1.44592010174e-10
1.69923886565e-10
1.70373776036e-10
1.69083562676e-10
1.69489894201e-10
1.44435737482e-10
4.04149194299e-10
2.39183866129e-10
2.3836305677e-10
3.87117779649e-10
2.23495190522e-10
2.22603029943e-10
2.266271669e-10
2.25834288529e-10
3.88344339831e-10
1.43452403214e-10
1.66950153264e-10
1.67282349446e-10
1.66238375563e-10
1.66592734304e-10
1.43322051902e-10
3.98045128332e-10
2.33805495007e-10
2.33144308661e-10
2.37567005059e-10
2.3686109456e-10
4.01205436938e-10
1.4396704712e-10
1.6825589732e-10
1.68652485148e-10
1.67592135883e-10
1.67904019596e-10
1.43824030136e-10
1.41058447448e-10
1.59770140411e-10
1.60228861055e-10
1.41298635122e-10
1.40514607044e-10
1.40527935986e-10
1.60713546549e-10
1.61138073154e-10
1.41443807537e-10
1.41557951359e-10
1.61441337069e-10
1.61672303723e-10
1.40525908039e-10
1.40535000106e-10
1.41281725258e-10
1.61899052878e-10
1.62185381385e-10
1.41821011874e-10
1.41945544952e-10
1.62554965477e-10
1.62956646282e-10
1.40512120551e-10
1.40863053574e-10
1.40882586043e-10
1.40840840963e-10
1.40847402702e-10
1.40510207106e-10
1.40521174776e-10
1.40837544413e-10
1.40838010384e-10
1.40831623325e-10
1.40835968695e-10
1.40527531257e-10
1.40531932094e-10
1.40832726748e-10
1.40831431408e-10
1.40828966384e-10
1.40831580208e-10
1.40533411381e-10
1.40541773776e-10
1.40827880107e-10
1.40828214746e-10
1.4082369044e-10
1.40824294397e-10
1.40544217516e-10
1.40568111708e-10
1.40826990219e-10
1.40826918997e-10
1.40813448998e-10
1.40822317953e-10
1.40568145234e-10
1.40539038979e-10
1.4079163011e-10
1.40801809203e-10
1.40780299752e-10
1.40784860933e-10
1.40533396327e-10
1.40538106956e-10
1.40780544194e-10
1.40777286513e-10
1.40795088376e-10
1.40793462334e-10
1.40556140876e-10
1.40572198066e-10
1.40784953021e-10
1.40792422635e-10
1.40766407245e-10
1.40775202439e-10
1.4056383078e-10
1.42356632837e-10
1.42217388335e-10
1.42271939833e-10
1.42283703632e-10
1.42282623796e-10
1.42253085681e-10
1.42176005959e-10
1.42106104176e-10
1.42077698428e-10
1.42070135721e-10
1.42057968996e-10
1.42064855274e-10
1.42054445952e-10
1.42049928312e-10
1.42040143147e-10
1.42019676717e-10
1.42004422399e-10
1.42039985433e-10
1.41961315034e-10
1.41946078877e-10
1.42006454636e-10
1.41940451777e-10
1.41935463575e-10
1.42002739836e-10
4.0701929314e-10
4.16666403736e-10
1.42054680388e-10
1.42003752905e-10
1.41975652669e-10
1.42045108151e-10
4.10681436176e-10
1.41166326852e-10
1.41193296865e-10
1.41127969993e-10
1.41157805056e-10
4.11122451754e-10
1.42047559192e-10
1.41942876405e-10
1.41905867098e-10
4.08440510108e-10
1.45273498238e-10
1.4490787628e-10
1.47122278089e-10
1.46618209171e-10
4.14224330012e-10
1.45832979481e-10
1.4540924967e-10
4.08895783859e-10
1.41174047979e-10
1.40568436148e-10
1.40579074741e-10
1.4055013011e-10
1.40553163493e-10
1.41183854963e-10
1.41139774669e-10
1.40574411316e-10
1.40591235332e-10
1.4056576533e-10
1.40572201597e-10
1.41150890663e-10
4.1323089002e-10
1.46416950623e-10
1.45946481715e-10
4.07560929957e-10
2.42313030885e-10
2.41705913244e-10
2.50938977266e-10
2.50457424528e-10
4.16064902407e-10
2.4524793835e-10
2.44748224871e-10
4.10131294431e-10
4.11576656674e-10
2.46302030689e-10
2.45731997782e-10
2.43271521064e-10
2.42818801094e-10
4.08018885752e-10
1.45156707354e-10
1.71400222936e-10
1.71673367945e-10
1.70786783113e-10
1.71115113135e-10
1.45038786827e-10
1.46983235337e-10
1.75787274185e-10
1.76085727956e-10
1.7492997502e-10
1.75404634573e-10
1.46814342225e-10
4.15220757195e-10
2.49810838948e-10
2.48955589178e-10
1.45711032918e-10
1.72630874684e-10
1.72923822777e-10
1.71969704756e-10
1.72285220511e-10
1.45554231132e-10
4.0941951785e-10
2.44199280174e-10
2.43731047861e-10
2.47979675099e-10
2.47062281149e-10
4.12285713528e-10
1.46231969764e-10
1.73927421414e-10
1.74410542275e-10
1.73201723521e-10
1.73520871161e-10
1.46075612032e-10
1.40546766508e-10
1.40752490782e-10
1.40758075506e-10
1.40752013808e-10
1.40750057105e-10
1.40546729122e-10
1.40580501118e-10
1.40754584527e-10
1.40755518948e-10
1.40740582306e-10
1.40749623375e-10
1.40583401301e-10
1.40563630093e-10
1.40731791803e-10
1.40734071663e-10
1.40729427909e-10
1.40731117366e-10
1.4056741792e-10
1.40577203577e-10
1.40723310923e-10
1.4072699517e-10
1.40714440635e-10
1.40719596533e-10
1.4058329319e-10
1.42609253127e-10
1.42256925933e-10
1.42286740214e-10
1.422795703e-10
1.42280229374e-10
1.4225942942e-10
1.4225425148e-10
1.42203309234e-10
1.42187919875e-10
1.42129627597e-10
1.42115671359e-10
1.42079911085e-10
1.42057500553e-10
1.4204806788e-10
1.42046091062e-10
1.42034857832e-10
1.42001211772e-10
1.42058701719e-10
1.41930676722e-10
1.41926418899e-10
1.41998629209e-10
4.17339083855e-10
4.27032513665e-10
1.42072362183e-10
1.41868090454e-10
1.418218725e-10
1.42061983531e-10
4.20613889569e-10
1.41095839888e-10
1.41120618747e-10
1.41046953603e-10
1.41075598904e-10
4.20902867904e-10
1.42066606156e-10
1.4177964249e-10
1.41725594205e-10
4.19350416774e-10
1.47720501246e-10
1.47248629064e-10
1.49741944082e-10
1.49133202719e-10
4.23798447927e-10
1.48315055837e-10
1.47898664348e-10
4.19712450892e-10
1.41108862857e-10
1.40607605083e-10
1.40602419357e-10
1.40594514404e-10
1.40610843259e-10
1.41116746968e-10
1.4105848384e-10
1.40649457967e-10
1.40660725673e-10
1.40605714791e-10
1.40634671745e-10
1.41069071769e-10
4.22652507583e-10
1.48907207108e-10
1.48414781998e-10
4.18211655085e-10
2.51921173306e-10
2.5139253215e-10
2.6068133851e-10
2.60003846512e-10
4.26142391648e-10
2.55294560256e-10
2.54884471507e-10
4.20400338357e-10
4.21297550535e-10
2.56170685579e-10
2.55700683185e-10
2.53175764406e-10
2.5253376245e-10
4.18893561021e-10
1.4755135806e-10
1.77043519165e-10
1.77458109862e-10
1.76365302801e-10
1.76679194375e-10
1.47391242173e-10
1.49579004586e-10
1.81635960264e-10
1.82012969025e-10
1.80596544921e-10
1.81142058023e-10
1.49367182149e-10
4.25015119329e-10
2.59203652564e-10
2.5827630948e-10
1.48204213475e-10
1.78531779988e-10
1.78769314586e-10
1.7787758587e-10
1.78239464208e-10
1.48061165327e-10
4.20041248567e-10
2.54406684949e-10
2.53832740683e-10
2.57428735476e-10
2.56744826974e-10
4.21849096392e-10
1.48702570226e-10
1.79639981211e-10
1.80092007937e-10
1.78993129506e-10
1.79267655337e-10
1.48536170283e-10
1.40605686475e-10
1.40715495368e-10
1.40713527937e-10
1.40715288087e-10
1.40717371337e-10
1.40611504411e-10
1.40604692539e-10
1.40707554096e-10
1.40712394895e-10
1.40694660455e-10
1.40701142144e-10
1.40601959094e-10
1.40609580644e-10
1.40683077142e-10
1.4068809348e-10
1.40682565827e-10
1.40684537938e-10
1.40619373641e-10
1.40666965782e-10
1.40684927366e-10
1.40683371642e-10
1.40670902772e-10
1.40682154546e-10
1.40669810691e-10
1.42312411082e-10
1.42277830796e-10
1.43268472202e-10
1.42915993565e-10
1.42448748875e-10
1.42401307725e-10
1.44065232544e-10
1.4806957161e-10
1.42256570947e-10
1.4229119594e-10
1.4226517117e-10
1.4221395528e-10
1.42146775237e-10
1.42096427108e-10
1.42064225715e-10
1.42051323212e-10
1.42044731379e-10
1.42043256045e-10
1.42035181347e-10
1.41995774399e-10
1.42077310563e-10
1.41924271775e-10
1.41928211848e-10
1.41996000787e-10
4.27636385356e-10
4.31995459512e-10
1.42099109282e-10
1.41677768466e-10
1.41616548912e-10
1.42086618902e-10
4.29205987587e-10
1.41017338127e-10
1.41029325392e-10
1.40944906718e-10
1.41003786161e-10
4.30252989885e-10
1.42091909782e-10
1.41564275805e-10
1.41490715427e-10
4.2796061284e-10
1.502363343e-10
1.49870310278e-10
1.52136671781e-10
1.51624807344e-10
4.31779922534e-10
1.50943949437e-10
1.50373123635e-10
4.27969693769e-10
1.41015944714e-10
1.40614768827e-10
1.40675728063e-10
1.40637270069e-10
1.40611472717e-10
1.41021530927e-10
1.40952010841e-10
1.40664887489e-10
1.40629382971e-10
1.40699265692e-10
1.40682264965e-10
1.40978183329e-10
4.31683206109e-10
1.51451186585e-10
1.51178149568e-10
4.27885400383e-10
2.61812519759e-10
2.61295763836e-10
2.68320450174e-10
2.67960224543e-10
4.31793822375e-10
2.64196595174e-10
2.63558599898e-10
4.28460033533e-10
4.31025755492e-10
2.65408620681e-10
2.64909991673e-10
2.62561692234e-10
2.62222829894e-10
4.28041117086e-10
1.5011121095e-10
1.82860645073e-10
1.83124222374e-10
1.82334235653e-10
1.82605682585e-10
1.4998206312e-10
1.5205263612e-10
1.86794649243e-10
1.87092478505e-10
1.85990252376e-10
1.86435051734e-10
1.51847315567e-10
4.31688067262e-10
2.67467572754e-10
2.66916826604e-10
1.50714408755e-10
1.84058009011e-10
1.84465334999e-10
1.83402814782e-10
1.83707621394e-10
1.50532933321e-10
4.28080669671e-10
2.63211673522e-10
2.62885550648e-10
2.66359157113e-10
2.6586804094e-10
4.31477809065e-10
1.51372214589e-10
1.85427768106e-10
1.85652051398e-10
1.84916756222e-10
1.85198382391e-10
1.51298016529e-10
1.40623025979e-10
1.40646665683e-10
1.40656316971e-10
1.40633672426e-10
1.40638719283e-10
1.40614604821e-10
1.40617777638e-10
1.40632266723e-10
1.40632664602e-10
1.40669308524e-10
1.40646609681e-10
1.40635252486e-10
1.40700714105e-10
1.40664529022e-10
1.40672648015e-10
1.4063122917e-10
1.40651129184e-10
1.40696801803e-10
1.40652785903e-10
1.4059322527e-10
1.40607346713e-10
1.40578269323e-10
1.40584118669e-10
1.40643796276e-10
1.42305279192e-10
1.42302114759e-10
1.49651206906e-10
1.48925902079e-10
1.42275299863e-10
1.42266878791e-10
1.49397988952e-10
1.42155717027e-10
1.42132592733e-10
1.42258019803e-10
1.42284835952e-10
1.47974629406e-10
1.4231053169e-10
1.42281506269e-10
1.48836916192e-10
1.4227431361e-10
1.42288473787e-10