/*--------------------------------*- C++ -*----------------------------------*\
  =========                 |
  \\      /  F ield         | OpenFOAM: The Open Source CFD Toolbox
   \\    /   O peration     | Website:  https://openfoam.org
    \\  /    A nd           | Version:  8
     \\/     M anipulation  |
\*---------------------------------------------------------------------------*/
FoamFile
{
    version     2.0;
    format      ascii;
    class       volScalarField;
    location    "0";
    object      mixMu;
}
// * * * * * * * * * * * * * * * * * * * * * * * * * * * * * * * * * * * * * //

dimensions      [1 -1 -1 0 0 0 0];

internalField   nonuniform List<scalar> 
50271
(
9.94763049068e-07
9.94763049489e-07
9.94763051302e-07
9.94763058737e-07
9.94763089358e-07
9.94763215504e-07
9.94763735297e-07
9.94765883047e-07
9.94774761053e-07
9.94811340183e-07
9.94961256717e-07
9.94852662837e-07
9.9494440897e-07
9.95169038343e-07
1.00692339541e-06
9.96076493658e-07
1.1347670036e-06
1.21579099973e-06
1.01299164258e-06
9.95516324047e-07
1.0134363072e-06
9.97116049424e-07
9.99804971022e-07
9.9653178749e-07
9.98212238741e-07
1.17945164171e-06
1.02188840986e-06
9.95006365792e-07
1.00163987893e-06
1.02132597104e-06
1.18259095528e-06
1.00006472507e-06
1.02047051681e-06
1.00540656955e-06
1.15622236144e-06
1.03117721567e-06
9.96542520018e-07
9.92289458544e-07
9.96946718428e-07
1.2033008831e-06
1.01116378467e-06
1.01597885379e-06
1.01379200035e-06
1.00340539833e-06
9.98443123339e-07
1.00205800605e-06
1.01170195922e-06
1.02951853049e-06
1.15976751586e-06
1.01352747002e-06
1.02758142489e-06
1.01722131189e-06
9.95190050321e-07
1.02459781058e-06
9.99277731445e-07
1.00513717284e-06
9.99936870748e-07
9.97322520236e-07
1.01215785439e-06
1.0042322738e-06
1.01163698029e-06
1.19611233718e-06
9.98189135843e-07
1.00717720349e-06
1.00381834065e-06
1.01180299518e-06
1.00458886963e-06
1.01453326268e-06
1.01679688568e-06
1.0126357695e-06
1.01072703578e-06
1.01656242537e-06
1.01123435177e-06
1.15349935109e-06
1.04237660125e-06
1.02271705667e-06
1.0002828427e-06
1.00054690602e-06
1.21266370463e-06
1.00201101168e-06
1.00654565277e-06
1.1723589976e-06
1.01984635195e-06
1.02380390112e-06
1.02326189799e-06
1.02021080616e-06
1.01632384334e-06
1.0196098978e-06
1.18680564959e-06
1.00000015456e-06
9.99592982592e-07
1.01996916406e-06
1.01857995247e-06
1.01728736112e-06
1.03132930547e-06
1.03982731446e-06
1.15503410412e-06
1.02399081142e-06
1.03250933387e-06
1.03142556959e-06
1.00203024677e-06
1.02403512075e-06
1.00685929524e-06
9.93657911043e-07
9.91344579922e-07
9.89725303726e-07
9.94897498793e-07
9.93596558291e-07
9.9561046194e-07
1.20733130166e-06
1.00149680816e-06
1.00158118856e-06
1.01592959176e-06
1.01537538819e-06
1.01413291964e-06
1.01795638015e-06
1.01000410076e-06
1.00421228073e-06
1.02624218463e-06
1.01830301159e-06
1.02474767994e-06
1.16240253099e-06
1.01334490357e-06
1.02164863708e-06
1.02639124906e-06
1.0260450457e-06
1.02160032906e-06
1.02294256664e-06
1.02530942127e-06
1.02345842184e-06
9.9918255448e-07
9.96239329801e-07
9.94873387549e-07
1.01203288539e-06
1.00117679325e-06
1.01051952354e-06
1.00161787797e-06
1.00070081864e-06
1.19226712591e-06
9.99674221284e-07
9.96446940381e-07
9.95964148135e-07
1.00043136739e-06
9.97808466267e-07
1.00172634338e-06
1.0171944883e-06
1.018324474e-06
1.01742607456e-06
1.0159976199e-06
1.01790998865e-06
1.01764249268e-06
1.01589347089e-06
1.01374246187e-06
1.01571443855e-06
9.9476309085e-07
9.94763155842e-07
9.94763397362e-07
9.94764176102e-07
9.94766712025e-07
9.94774928167e-07
9.94801457389e-07
9.94886416529e-07
9.95157017545e-07
9.96017537132e-07
9.98550348105e-07
1.00139286959e-06
1.00864318532e-06
1.00565596399e-06
1.00261696802e-06
1.00241524246e-06
1.22224538735e-06
1.3479940287e-06
9.97003903671e-07
1.00221711002e-06
9.97937954456e-07
1.00345863173e-06
1.27566037033e-06
9.95743809092e-07
9.9954237536e-07
9.9397165287e-07
9.94973529936e-07
1.28442914782e-06
9.99475463055e-07
9.95548684873e-07
9.95018815928e-07
1.24394909348e-06
9.90550127769e-07
9.91604353408e-07
9.87229561463e-07
9.87729799629e-07
1.32005002172e-06
9.89034053076e-07
9.90071559816e-07
1.25107506135e-06
9.96399766973e-07
9.9341666229e-07
9.93143512664e-07
9.9582733197e-07
9.94472713705e-07
9.972298411e-07
9.94156037909e-07
9.9160771602e-07
9.91343403495e-07
9.92657849211e-07
9.9209238137e-07
9.94531013099e-07
1.31143725332e-06
9.88356432226e-07
9.88978466776e-07
1.22949391501e-06
1.00124859013e-06
1.00063863681e-06
1.01889091602e-06
1.01689560787e-06
1.33782529454e-06
1.00631250822e-06
1.00563519454e-06
1.26733180868e-06
1.29428524857e-06
1.01015630392e-06
1.00777302842e-06
1.00290172138e-06
1.00217426933e-06
1.23693931354e-06
9.90854314635e-07
9.88137805445e-07
9.87783104296e-07
9.88832695339e-07
9.88387706955e-07
9.91032199726e-07
9.87317170586e-07
9.84640488237e-07
9.84593991325e-07
9.84943559082e-07
9.84672598105e-07
9.87483067707e-07
1.32863982246e-06
1.0150110756e-06
1.01331110537e-06
9.89256771267e-07
9.86375924636e-07
9.86024530213e-07
9.87292784415e-07
9.86551056267e-07
9.89333605095e-07
1.25908878486e-06
1.00463416507e-06
1.00385755874e-06
1.01227087154e-06
1.01132386182e-06
1.30300873438e-06
9.88689566684e-07
9.8587159599e-07
9.85558327274e-07
9.8598386129e-07
9.86023242558e-07
9.88936826442e-07
9.9476357535e-07
9.94764180776e-07
9.94766458489e-07
9.94773002247e-07
9.94791991686e-07
9.94845905377e-07
9.94995368377e-07
9.95399252917e-07
9.96433343488e-07
9.9833845824e-07
9.9968586057e-07
1.00098949427e-06
9.96732983252e-07
9.95940052716e-07
9.94429833039e-07
9.98584106893e-07
9.95891869294e-07
9.98884041146e-07
9.94739891744e-07
9.94760345688e-07
9.95400312797e-07
1.35704474615e-06
1.49125715756e-06
9.9447903328e-07
1.49939407927e-06
1.61170317718e-06
9.94549335384e-07
9.94696749051e-07
9.94339187886e-07
9.94835135548e-07
9.94180769168e-07
9.94357130422e-07
9.94459364045e-07
1.41786245805e-06
9.93650584666e-07
9.93880130665e-07
9.93385687853e-07
9.93538494333e-07
1.42673092945e-06
9.94455953394e-07
9.93983664104e-07
9.94044595502e-07
1.551956612e-06
9.93280770611e-07
9.93439184798e-07
9.92272391928e-07
9.93100889749e-07
1.55980549199e-06
9.94560516795e-07
9.94457796269e-07
9.94405220791e-07
1.38247412676e-06
9.86574187432e-07
9.87144019627e-07
9.86059114806e-07
9.86073383753e-07
1.46317030686e-06
1.52300674906e-06
9.85903072987e-07
9.86004910908e-07
9.85196888804e-07
9.85463960199e-07
1.59299693016e-06
9.86106745456e-07
9.8647644227e-07
1.39190689696e-06
9.93734718017e-07
9.90570986612e-07
9.90314055321e-07
9.91069967843e-07
9.90776877414e-07
9.93779665275e-07
9.93363122728e-07
9.89878628689e-07
9.89872580875e-07
9.90150288351e-07
9.89931985111e-07
9.93360408395e-07
1.45564146943e-06
9.8612087255e-07
9.86120165665e-07
9.85658559471e-07
9.8584648737e-07
1.53000583199e-06
9.93382845537e-07
9.89502068565e-07
9.89308782475e-07
9.89799380569e-07
9.8968100063e-07
9.93441781648e-07
9.92468510991e-07
9.87832802354e-07
9.87594876335e-07
9.89035439469e-07
9.88013923861e-07
9.92802619365e-07
1.58276673239e-06
9.85550325411e-07
9.85566661368e-07
1.36486020035e-06
1.02270435713e-06
1.02095342769e-06
1.05726772393e-06
1.05411929359e-06
1.4809680826e-06
1.50600976772e-06
1.06233084489e-06
1.06008673409e-06
1.1020126628e-06
1.09932643408e-06
1.60574174916e-06
1.03552722854e-06
1.03317003098e-06
1.40957205844e-06
1.43708976396e-06
1.04090945225e-06
1.038000597e-06
1.07854048457e-06
1.0752462597e-06
1.5430015933e-06
1.56614166102e-06
1.08383901292e-06
1.08148110353e-06
1.02655840928e-06
1.024483635e-06
1.3732187403e-06
9.86764743859e-07
9.84475234673e-07
9.84455086913e-07
9.84598466876e-07
9.84571101614e-07
9.86977041354e-07
9.86079773723e-07
9.85320534845e-07
9.85432464082e-07
9.85127790345e-07
9.85206127496e-07
9.86071448955e-07
1.4713351768e-06
1.05124245594e-06
1.04877083367e-06
1.06810694818e-06
1.06492041833e-06
1.51384733173e-06
9.85915627919e-07
9.85557770747e-07
9.85801231297e-07
9.85489816844e-07
9.85477968559e-07
9.8591410585e-07
9.85183754649e-07
9.8837683971e-07
9.88927238476e-07
9.87110379397e-07
9.87823488564e-07
9.85335226499e-07
1.60011912314e-06
1.09666180059e-06
1.09363643645e-06
9.86201521602e-07
9.84364366305e-07
9.84420541924e-07
9.84414597591e-07
9.84355344461e-07
9.86313702009e-07
1.40094638224e-06
1.03079722366e-06
1.02861240899e-06
1.0464282357e-06
1.04383531054e-06
1.44751174081e-06
9.86150535463e-07
9.85005083651e-07
9.85081455198e-07
9.84576792323e-07
9.84832829696e-07
9.86146523607e-07
9.85718111851e-07
9.85920026669e-07
9.86068205112e-07
9.85874654795e-07
9.85865013355e-07
9.85742727559e-07
1.53560387972e-06
1.07278437546e-06
1.07081227216e-06
1.08986624802e-06
1.08639539721e-06
1.57319759843e-06
9.85558234315e-07
9.86184810341e-07
9.86566023389e-07
9.86102708519e-07
9.86079281857e-07
9.85446955358e-07
9.90201008043e-07
9.90152670281e-07
9.87574325736e-07
9.87676150926e-07
9.90120328377e-07
9.90065026054e-07
9.89872459212e-07
9.89564313984e-07
9.8843937425e-07
9.94766633801e-07
9.94769539091e-07
9.94781250296e-07
9.94811256862e-07
9.94889077658e-07
9.95083777603e-07
9.95549837459e-07
9.9656948324e-07
9.96585449841e-07
9.9739590525e-07
9.97776740322e-07
9.97709391518e-07
9.98330163695e-07
9.97643262828e-07
9.98204232805e-07
9.96089292575e-07
9.94975815687e-07
9.94588230027e-07
9.94787562606e-07
9.94943188985e-07
9.94954681492e-07
1.61993272171e-06
1.74255473785e-06
9.95087483917e-07
9.94467109651e-07
9.9463889278e-07
9.94651538971e-07
1.6817721917e-06
9.92817086405e-07
9.92291438643e-07
9.92409409364e-07
9.92791223849e-07
1.68964691274e-06
9.94857878469e-07
9.94896963241e-07
9.95051262787e-07
1.64906681779e-06
9.85156055862e-07
9.85294539748e-07
9.83895255686e-07
9.84308730333e-07
1.71690979434e-06
9.84897793369e-07
9.85169352622e-07
1.6581005881e-06
9.92670024889e-07
9.87833997922e-07
9.87515946179e-07
9.87682093939e-07
9.87836379525e-07
9.92458027458e-07
9.92594700646e-07
9.86819382602e-07
9.86434913499e-07
9.87290943263e-07
9.86873577934e-07
9.92747428322e-07
1.70952336823e-06
9.84362149986e-07
9.8474539831e-07
1.62952009883e-06
1.10901681229e-06
1.1053183439e-06
1.15876234529e-06
1.15460379349e-06
1.73426216236e-06
1.13027842695e-06
1.12674208139e-06
1.67375004918e-06
1.69675897771e-06
1.13705918704e-06
1.13381258912e-06
1.11641952795e-06
1.11264374418e-06
1.63916528162e-06
9.85230368632e-07
9.91093655256e-07
9.91742417095e-07
9.89740563168e-07
9.90446576163e-07
9.85299542328e-07
9.84067745874e-07
1.0008113902e-06
1.00191063289e-06
9.9869518194e-07
9.99709399973e-07
9.84213027979e-07
1.72540133419e-06
1.15034846244e-06
1.14641196424e-06
9.85047031278e-07
9.94179773039e-07
9.94842175471e-07
9.92896073663e-07
9.93793011466e-07
9.85153956375e-07
1.66608612794e-06
1.12352367028e-06
1.12005698619e-06
1.14304192397e-06
1.14007946552e-06
1.7031661997e-06
9.84407651826e-07
9.9710804566e-07
9.97849478939e-07
9.95445135951e-07
9.96290703835e-07
9.84538433947e-07
9.9028857275e-07
9.90384413391e-07
9.8695096689e-07
9.8674219456e-07
9.90076837666e-07
9.90172780939e-07
9.89836593306e-07
9.89954043897e-07
9.86623936964e-07
9.87096552719e-07
9.90482196917e-07
9.90605063149e-07
9.90781287527e-07
9.90854032302e-07
9.87677871199e-07
9.87781478185e-07
9.90885421259e-07
9.90862869516e-07
9.90766115075e-07
9.90600354696e-07
9.87835100317e-07
9.87778999309e-07
9.90416303365e-07
9.90291205406e-07
9.94780105156e-07
9.947891133e-07
9.94844003378e-07
9.94831965447e-07
9.94965658646e-07
9.94928950728e-07
9.95206494515e-07
9.95155089283e-07
9.95708947033e-07
9.95649193862e-07
9.96511507043e-07
9.97149725014e-07
9.97357506979e-07
9.97296326381e-07
9.96394825418e-07
9.95245798132e-07
9.95038735383e-07
9.95206135154e-07
9.95152250565e-07
9.95223747568e-07
9.95193332307e-07
1.74896940011e-06
1.84106000089e-06
9.95039972193e-07
9.95013734791e-07
9.94930944914e-07
9.95172333502e-07
1.79200203169e-06
9.91923809335e-07
9.92245452223e-07
9.9146318238e-07
9.91831431222e-07
1.79726200814e-06
9.95087327204e-07
9.94823778711e-07
9.94769284326e-07
1.76581163501e-06
9.83702915286e-07
9.83703899561e-07
9.83430656661e-07
9.83436392858e-07
1.82550786937e-06
9.83575749302e-07
9.8375253689e-07
1.7736407018e-06
9.91981214432e-07
9.86079504352e-07
9.8580751863e-07
9.8625543848e-07
9.86086145768e-07
9.92063510817e-07
9.91622256457e-07
9.85506620336e-07
9.85275460268e-07
9.85697205882e-07
9.85470714295e-07
9.91742319841e-07
1.8193405614e-06
9.83357938333e-07
9.8342553998e-07
1.7541486029e-06
1.16528492333e-06
1.16228944527e-06
1.21374479226e-06
1.21045258766e-06
1.83565919429e-06
1.18559994918e-06
1.1826445067e-06
1.78713330558e-06
1.80384628817e-06
1.19240587199e-06
1.18868784675e-06
1.17146024616e-06
1.16820845511e-06
1.75946224418e-06
9.83669472058e-07
1.0047776243e-06
1.00576462824e-06
1.00293807054e-06
1.00386546693e-06
9.83651734764e-07
9.8354136436e-07
1.01779302482e-06
1.01878275986e-06
1.01553941227e-06
1.01677763742e-06
9.83546741066e-07
1.83055664539e-06
1.20738223317e-06
1.20418438029e-06
9.83744722636e-07
1.00913071563e-06
1.00995803703e-06
1.00686540905e-06
1.00808547891e-06
9.83790465836e-07
1.78133304732e-06
1.17920417085e-06
1.17524778458e-06
1.20059539443e-06
1.19657305348e-06
1.81154380967e-06
9.83370817281e-07
1.01320052542e-06
1.01438554185e-06
1.01083029728e-06
1.01194953161e-06
9.83418267413e-07
9.86145747915e-07
9.89624208413e-07
9.89709583604e-07
9.89479571495e-07
9.8953250142e-07
9.86111101992e-07
9.86036506972e-07
9.89394199439e-07
9.89446632032e-07
9.89254541914e-07
9.89329593056e-07
9.85942058466e-07
9.85609756623e-07
9.89107786637e-07
9.89180728703e-07
9.88968506631e-07
9.89012019131e-07
9.85509427405e-07
9.85512148868e-07
9.888911467e-07
9.88941358341e-07
9.88632865451e-07
9.88779917838e-07
9.85438704086e-07
9.94827156886e-07
9.94963584859e-07
9.9497193101e-07
9.95253792622e-07
9.95736066179e-07
9.96437074175e-07
9.96950586058e-07
9.97133766771e-07
9.97099339796e-07
9.96497235494e-07
9.9558093058e-07
9.95188170306e-07
9.95242208086e-07
9.94982456677e-07
9.95179379171e-07
9.95071368076e-07
9.95207239198e-07
1.84648999562e-06
1.91821887231e-06
9.94733790907e-07
9.94691865948e-07
9.94584419003e-07
9.94904136231e-07
1.87897138037e-06
9.90881864211e-07
9.91281794888e-07
9.90641236929e-07
9.90816956982e-07
1.88332946076e-06
9.94827552903e-07
9.94546494275e-07
9.94505395179e-07
1.86106893163e-06
9.83149752075e-07
9.83227319847e-07
9.83541100474e-07
9.83282182752e-07
1.90236006378e-06
9.83483637856e-07
9.83231777935e-07
1.86565647533e-06
9.90998703197e-07
9.84804295397e-07
9.84773533635e-07
9.85041520559e-07
9.84784546047e-07
9.91140687616e-07
9.90718404692e-07
9.84411793616e-07
9.84394104649e-07
9.84685053641e-07
9.8442234121e-07
9.90772673575e-07
1.89676118065e-06
9.83254714848e-07
9.83441002539e-07
1.85166675649e-06
1.22055237171e-06
1.21722415264e-06
1.26851924702e-06
1.26515648388e-06
1.913795556e-06
1.24059796517e-06
1.23733181274e-06
1.87457564572e-06
1.88751854344e-06
1.24667158202e-06
1.24374584548e-06
1.22698872977e-06
1.22381182685e-06
1.85644343401e-06
9.83134536146e-07
1.02193541519e-06
1.02300897255e-06
1.01981379007e-06
1.02086511351e-06
9.83155369642e-07
9.83473341235e-07
1.03654733835e-06
1.03789092064e-06
1.03348153013e-06
1.03499375298e-06
9.83381359044e-07
1.90821863693e-06
1.26082760822e-06
1.25656341755e-06
9.83472530742e-07
1.0268939508e-06
1.02802538332e-06
1.02419500709e-06
1.02559106879e-06
9.83410426682e-07
1.87002576757e-06
1.23386029581e-06
1.23031228983e-06
1.25284550323e-06
1.24962902681e-06
1.89183595458e-06
9.83267458295e-07
1.03111911266e-06
1.03220518094e-06
1.02911128066e-06
1.03010319385e-06
9.83342326682e-07
9.84898084881e-07
9.88326449402e-07
9.88436724785e-07
9.8815813263e-07
9.88222682086e-07
9.84816489602e-07
9.84833677775e-07
9.88080007755e-07
9.88111487433e-07
9.87957759338e-07
9.88020846045e-07
9.84818563978e-07
9.84558856857e-07
9.87808229949e-07
9.87868891097e-07
9.87688654259e-07
9.87739384206e-07
9.84466639923e-07
9.84433234568e-07
9.87656573594e-07
9.8766348416e-07
9.87540012926e-07
9.87611666008e-07
9.84429101017e-07
9.95277362488e-07
9.95230043382e-07
9.9576359217e-07
9.96379078109e-07
9.96822587732e-07
9.96963002897e-07
9.96952670492e-07
9.96525681123e-07
9.95731069495e-07
9.95288929031e-07
9.95142611505e-07
9.9514433009e-07
9.9470588593e-07
9.94932992199e-07
9.94809558646e-07
9.95073910542e-07
1.92130237579e-06
1.97176188791e-06
9.94580328253e-07
9.9448155799e-07
9.94424697157e-07
9.94657516806e-07
1.94217075001e-06
9.90221970948e-07
9.90533999074e-07
9.90008075862e-07
9.90187415639e-07
1.9432527514e-06
9.94629137705e-07
9.94407375407e-07
9.94324690491e-07
1.93353273369e-06
9.83869344553e-07
9.8356222302e-07
9.84608938171e-07
9.84202830952e-07
1.965009315e-06
9.83634370444e-07
9.83872704509e-07
1.93773004413e-06
9.90286070573e-07
9.84272749734e-07
9.83933061325e-07
9.84342191303e-07
9.84331333236e-07
9.90430716059e-07
9.90114535514e-07
9.84059662132e-07
9.83846150777e-07
9.83923778649e-07
9.83953549981e-07
9.90166081775e-07
1.95902091527e-06
9.83903844804e-07
9.83644097845e-07
1.92457942733e-06
1.27385031609e-06
1.27117827318e-06
1.31630943606e-06
1.31437982479e-06
1.97060402379e-06
1.2906418855e-06
1.28906900735e-06
1.94157902628e-06
1.94627386018e-06
1.29598560365e-06
1.29286500501e-06
1.28124026848e-06
1.27719569505e-06
1.92868740881e-06
9.83771756678e-07
1.04161400663e-06
1.04325231162e-06
1.0390316865e-06
1.04019331054e-06
9.83630162485e-07
9.84362886203e-07
1.05713442416e-06
1.05809487565e-06
1.05475098407e-06
1.05611237805e-06
9.84265290696e-07
1.96868748444e-06
1.31219103002e-06
1.30906580277e-06
9.83748412529e-07
1.04635133706e-06
1.04706503969e-06
1.0446158069e-06
1.04558503827e-06
9.83851060322e-07
1.94060098392e-06
1.28724286442e-06
1.28478324626e-06
1.30444698235e-06
1.29994376969e-06
1.95184852372e-06
9.83764893585e-07
1.05105784527e-06
1.05276499797e-06
1.04806757074e-06
1.04944310196e-06
9.83700427129e-07
9.84345848147e-07
9.87410763441e-07
9.87459696243e-07
9.87286735586e-07
9.87354526156e-07
9.84353673301e-07
9.84167223338e-07
9.87093870247e-07
9.87197788825e-07
9.86926702097e-07
9.86991776962e-07
9.84032000367e-07
9.83910388949e-07
9.86889552058e-07
9.86917441499e-07
9.86865921201e-07
9.86850346386e-07
9.83895894353e-07
9.84053755364e-07
9.86845253906e-07
9.86876021257e-07
9.86621329279e-07
9.86752876425e-07
9.83970777331e-07
9.95881827336e-07
9.95693102303e-07
9.96309907847e-07
9.9666612923e-07
9.96821290582e-07
9.96830733488e-07
9.96528569962e-07
9.95856160835e-07
9.953607633e-07
9.95210677149e-07
9.95102114314e-07
9.94996851463e-07
9.9452842078e-07
9.94255659876e-07
9.9469018142e-07
9.94536499856e-07
9.94905928678e-07
1.97318083726e-06
2.0210829518e-06
9.94267506819e-07
2.02451861262e-06
2.07030446528e-06
9.94218729644e-07
9.94192466835e-07
9.94022230663e-07
9.9444565272e-07
9.93691662715e-07
9.93599854006e-07
9.94229723969e-07
1.99981177e-06
9.89424950189e-07
9.89829909101e-07
9.89318190747e-07
9.89414600239e-07
1.99998930737e-06
9.94367196522e-07
9.93906911447e-07
9.93784387283e-07
2.04373111406e-06
9.89040511853e-07
9.89254616019e-07
9.88848815585e-07
9.89007834434e-07
2.04596058716e-06
9.94235855021e-07
9.93511261029e-07
9.93391789774e-07
1.98509990245e-06
9.86042940873e-07
9.84772358252e-07
9.91714517301e-07
9.90211703074e-07
2.00887818033e-06
2.03337232657e-06
9.93772836058e-07
9.92209160937e-07
1.0005256343e-06
9.9870118808e-07
2.05803575223e-06
9.87994501189e-07
9.86604579498e-07
1.99194922606e-06
9.83707948218e-07
9.83619744259e-07
9.89637010067e-07
9.89351924993e-07
9.83782705695e-07
9.83852717648e-07
2.0047296202e-06
9.89673799893e-07
9.88280430974e-07
9.95678954072e-07
9.94210366866e-07
2.03606421357e-06
9.89088897462e-07
9.83843623428e-07
9.83698272503e-07
9.83928320722e-07
9.83937790374e-07
9.89178793177e-07
9.88937900501e-07
9.83986029908e-07
9.8383081395e-07
9.83693081326e-07
9.83970686696e-07
9.89002402385e-07
2.0540704741e-06
9.97983724752e-07
9.96151840691e-07
1.97544681004e-06
1.32109173797e-06
1.31839206101e-06
1.36393672949e-06
1.36095347791e-06
2.01744207325e-06
2.02763469399e-06
1.37000995369e-06
1.36700454747e-06
1.41094499254e-06
1.40725286985e-06
2.06649324698e-06
1.34150783388e-06
1.34006032911e-06
1.99926729166e-06
2.00025279731e-06
1.34475967223e-06
1.34290515916e-06
1.3864626232e-06
1.38382145395e-06
2.04135111053e-06
2.04827883594e-06
1.39121525178e-06
1.38885502342e-06
1.32894646717e-06
1.32466933459e-06
1.97951562466e-06
1.05914925126e-06
1.06051633402e-06
9.85070819235e-07
9.91245281681e-07
1.08132757318e-06
1.08283226057e-06
1.07799885129e-06
1.07973664703e-06
9.9074119131e-07
2.01331254659e-06
1.35777160442e-06
1.35430301464e-06
1.37556035033e-06
1.37291480981e-06
2.03066752147e-06
9.9330833532e-07
1.08765927168e-06
1.08914664495e-06
1.0843853761e-06
1.08604227549e-06
9.92775745165e-07
9.99888653225e-07
1.10681762042e-06
1.10879818136e-06
1.10312180588e-06
1.1049246348e-06
9.99279350662e-07
2.06233789895e-06
1.40361806959e-06
1.40010960104e-06
1.99696479243e-06
1.33779429358e-06
1.33389847349e-06
1.35075645176e-06
1.34745043694e-06
2.00146932796e-06
9.95181919635e-07
1.09368358433e-06
1.09512857463e-06
1.09062861751e-06
1.09215112632e-06
9.94682046745e-07
2.03873518106e-06
1.38102536868e-06
1.37825524434e-06
1.39674637894e-06
1.39382187353e-06
2.05091155903e-06
9.97257166127e-07
1.09936572018e-06
1.10114519262e-06
1.09647516758e-06
1.09783381278e-06
9.96653750665e-07
9.85534533887e-07
1.06223905778e-06
1.06422153777e-06
9.89517906459e-07
9.83645538945e-07
9.83731336136e-07
1.06639456301e-06
1.06831402477e-06
9.87156390028e-07
9.87640902924e-07
1.06963011821e-06
1.07063795267e-06
9.83714059051e-07
9.83767639198e-07
9.89393503786e-07
1.07161528834e-06
1.07283943359e-06
9.88648866242e-07
9.89158822634e-07
1.07444028972e-06
1.07619301361e-06
9.8363469928e-07
9.86304337773e-07
9.86448490419e-07
9.86140024599e-07
9.86188732224e-07
9.83617580613e-07
9.83686975954e-07
9.86114968205e-07
9.86118914131e-07
9.86070246396e-07
9.86102762747e-07
9.8373069163e-07
9.83753239944e-07
9.86077650774e-07
9.86068670134e-07
9.86049315647e-07
9.86068998613e-07
9.83761691273e-07
9.83809927724e-07
9.8604009056e-07
9.86043174543e-07
9.86008323746e-07
9.86013044935e-07
9.83823763733e-07
9.83987865634e-07
9.860316396e-07
9.86031568378e-07
9.85930510595e-07
9.85996382644e-07
9.83984360018e-07
9.8375492718e-07
9.85768574852e-07
9.8584412867e-07
9.85683756935e-07
9.85717975876e-07
9.83708271018e-07
9.83727665501e-07
9.8568460252e-07
9.8566107675e-07
9.85790273116e-07
9.85778796642e-07
9.83854963894e-07
9.83957612846e-07
9.85713758363e-07
9.85769979131e-07
9.85575572441e-07
9.85641265016e-07
9.83885661406e-07
9.97280408232e-07
9.96260565838e-07
9.96660169446e-07
9.9674633174e-07
9.96738422788e-07
9.96522067061e-07
9.95957375807e-07
9.95445131821e-07
9.9523693523e-07
9.95181501578e-07
9.95092317822e-07
9.95142779333e-07
9.95066462027e-07
9.95033164167e-07
9.94961441459e-07
9.94811604042e-07
9.94699766331e-07
9.94207272758e-07
9.94383688665e-07
9.94271960002e-07
9.9471466613e-07
9.94230694173e-07
9.94194112927e-07
9.94687430156e-07
2.07318348289e-06
2.10990626426e-06
9.94170822447e-07
9.9324681037e-07
9.93096445654e-07
9.94198245857e-07
2.08746005512e-06
9.88544141299e-07
9.88742719841e-07
9.88261542808e-07
9.88481300302e-07
2.08913313682e-06
9.94172081146e-07
9.92930072159e-07
9.92750320429e-07
2.07832215354e-06
1.00248695707e-06
1.00111087241e-06
1.01001824333e-06
1.00797004105e-06
2.10031891632e-06
1.00490749283e-06
1.00304001738e-06
2.08006829296e-06
9.88600988794e-07
9.8388273397e-07
9.83940275304e-07
9.83773566186e-07
9.83779261045e-07
9.88673224962e-07
9.88348460266e-07
9.83864929754e-07
9.83964314131e-07
9.83834540609e-07
9.83857359018e-07
9.88430389815e-07
2.09670565834e-06
1.0071762134e-06
1.00532875817e-06
2.07509039741e-06
1.41673021623e-06
1.41422132377e-06
1.45255262755e-06
1.45052170101e-06
2.10743832822e-06
1.42903494278e-06
1.42680781858e-06
2.08520498901e-06
2.09081021081e-06
1.43341647753e-06
1.43106575983e-06
1.42062610282e-06
1.41879606338e-06
2.0767322572e-06
1.0020337254e-06
1.1131702245e-06
1.11432730283e-06
1.11058347257e-06
1.11197095194e-06
1.00159422636e-06
1.00942429841e-06
1.13231923057e-06
1.1336662158e-06
1.12863413374e-06
1.1306699613e-06
1.00874285894e-06
2.10409821019e-06
1.44784622301e-06
1.44429326914e-06
1.0043996954e-06
1.11862854891e-06
1.11999745635e-06
1.11558349366e-06
1.11697562335e-06
1.00367236275e-06
2.08219021767e-06
1.42436267362e-06
1.42244946134e-06
1.44025823474e-06
1.43650976225e-06
2.0933455788e-06
1.00644059715e-06
1.12432338022e-06
1.12639793357e-06
1.12121417798e-06
1.12258861027e-06
1.00582266808e-06
9.83743168397e-07
9.85471255715e-07
9.85512812784e-07
9.85466183964e-07
9.85452334482e-07
9.83738389631e-07
9.83966621081e-07
9.85483340957e-07
9.85491044334e-07
9.85378373163e-07
9.85445708993e-07
9.83980108898e-07
9.83813526369e-07
9.85311535609e-07
9.85329502243e-07
9.8529190341e-07
9.85305025087e-07
9.83836011235e-07
9.83879564563e-07
9.85244078293e-07
9.852726703e-07
9.85176225192e-07
9.85215700205e-07
9.83916247878e-07
9.99129295347e-07
9.96550196815e-07
9.96768572156e-07
9.96716058158e-07
9.96720885412e-07
9.96568534583e-07
9.96530606556e-07
9.96157419796e-07
9.9604466844e-07
9.95617527451e-07
9.95515248455e-07
9.95253153422e-07
9.9508888399e-07
9.95019738337e-07
9.95005204003e-07
9.94922799971e-07
9.94676226673e-07
9.9415219808e-07
9.94159007648e-07
9.94125981087e-07
9.9465729165e-07
2.11267651865e-06
2.14989550664e-06
9.94115262042e-07
9.92563201855e-07
9.9234373086e-07
9.94131113188e-07
2.12482775519e-06
9.88024619654e-07
9.88207397825e-07
9.87664252135e-07
9.8787556291e-07
2.12581160151e-06
9.94116694641e-07
9.92136050477e-07
9.91889699419e-07
2.12070062605e-06
1.01261759914e-06
1.01057663265e-06
1.02090512282e-06
1.01824638271e-06
2.13715666293e-06
1.01481142488e-06
1.01329690121e-06
2.12193145791e-06
9.88120524081e-07
9.84040123889e-07
9.83974314636e-07
9.8398476169e-07
9.84079919293e-07
9.88178804996e-07
9.87749322705e-07
9.84264308065e-07
9.84319006768e-07
9.83984931901e-07
9.84165741824e-07
9.87827345603e-07
2.13252093006e-06
1.01726284456e-06
1.01519066038e-06
2.11632459421e-06
1.45685230746e-06
1.45449401725e-06
1.49324652232e-06
1.49043545526e-06
2.14642991505e-06
1.47067509311e-06
1.46903814916e-06
2.12412271777e-06
2.12723230185e-06
1.47421350487e-06
1.47231018915e-06
1.46223387864e-06
1.45953500724e-06
2.11901962069e-06
1.01191531077e-06
1.13813867074e-06
1.14001464132e-06
1.1349644133e-06
1.13646071584e-06
1.01122642046e-06
1.02029271574e-06
1.15834068678e-06
1.15996335987e-06
1.15346337722e-06
1.15605292029e-06
1.01933632175e-06
2.14201608396e-06
1.48707372709e-06
1.48300192637e-06
1.01440378884e-06
1.14448090009e-06
1.14544498098e-06
1.14182965107e-06
1.14331418914e-06
1.01388974299e-06
2.12299803524e-06
1.46715944871e-06
1.4648924288e-06
1.47936233841e-06
1.4765419522e-06
2.12934311604e-06
1.01638372459e-06
1.14917598766e-06
1.15118009742e-06
1.14637703961e-06
1.14755268707e-06
1.0156811721e-06
9.84055391908e-07
9.85181647838e-07
9.85168706558e-07
9.85178104847e-07
9.85194095716e-07
9.84088809423e-07
9.84008028356e-07
9.85117839248e-07
9.85155017791e-07
9.85019853531e-07
9.85069208298e-07
9.83977555618e-07
9.84008272019e-07
9.84931360348e-07
9.84969619829e-07
9.84924470961e-07
9.84940357306e-07
9.84073097095e-07
9.84385194882e-07
9.84939191235e-07
9.84929359323e-07
9.84832133645e-07
9.84917488e-07
9.84398907352e-07
9.96956579777e-07
9.96703317446e-07
1.00394597217e-06
1.00137197914e-06
9.97954789363e-07
9.97607501422e-07
1.00975224822e-06
1.03868673941e-06
9.96547596569e-07
9.96801206156e-07
9.9661059163e-07
9.96235415148e-07
9.95743187588e-07
9.9537420734e-07
9.95138180929e-07
9.95043601632e-07
9.94995279564e-07
9.94984380943e-07
9.9492527047e-07
9.9463636033e-07
9.94110718831e-07
9.94100321006e-07
9.94113993249e-07
9.94638020202e-07
2.1521348035e-06
2.16749406291e-06
9.9415009982e-07
9.91657213966e-07
9.91377189765e-07
9.94135455965e-07
2.15795396068e-06
9.87445406723e-07
9.87534302993e-07
9.86911463644e-07
9.87345594996e-07
2.16232329462e-06
9.9413851315e-07
9.9109930259e-07
9.90756785272e-07
2.15278223967e-06
1.02264795853e-06
1.02134036803e-06
1.03026817783e-06
1.02843838171e-06
2.16769664322e-06
1.02557087268e-06
1.02315976697e-06
2.15265808353e-06
9.87435357429e-07
9.83919227716e-07
9.84327991782e-07
9.84132033171e-07
9.83907983566e-07
9.87476823729e-07
9.86964118026e-07
9.84181548207e-07
9.83877840759e-07
9.84490989808e-07
9.84330983265e-07
9.8715693214e-07
2.16770599565e-06
1.02777095333e-06
1.02674087671e-06
2.15298317744e-06
1.49792878277e-06
1.49578304455e-06
1.52423916183e-06
1.52297546532e-06
2.16682687982e-06
1.50750392554e-06
1.50469234469e-06
2.15464238129e-06
2.16537774882e-06
1.51284485283e-06
1.51072740578e-06
1.50087702696e-06
1.49956739936e-06
2.15336224388e-06
1.02219660139e-06
1.16343396851e-06
1.16456006837e-06
1.16127987293e-06
1.16238428465e-06
1.0217390153e-06
1.02999744598e-06
1.18053611449e-06
1.18169705169e-06
1.17714939014e-06
1.17910319822e-06
1.02930456222e-06
2.16675396812e-06
1.52116751354e-06
1.51906055152e-06
1.02449924009e-06
1.16846072195e-06
1.17039203418e-06
1.16572131705e-06
1.16698531801e-06
1.02376841575e-06
2.15305082597e-06
1.50332555532e-06
1.50210987796e-06
1.51679649799e-06
1.51476068305e-06
2.16704454365e-06
1.02749683569e-06
1.1748371249e-06
1.17569673024e-06
1.17268364011e-06
1.17393900005e-06
1.02724602278e-06
9.84020214582e-07
9.84649411734e-07
9.84722707634e-07
9.84549719392e-07
9.84588955112e-07
9.83939642901e-07
9.83933223497e-07
9.84536707099e-07
9.84540912626e-07
9.84805365173e-07
9.84640287613e-07
9.84042838989e-07
9.84495668516e-07
9.84765971572e-07
9.84828352922e-07
9.84515520899e-07
9.8466518268e-07
9.84445652304e-07
9.84084994219e-07
9.84231074844e-07
9.84337753252e-07
9.84116677687e-07
9.84161988417e-07
9.83997171937e-07
9.9690434921e-07
9.96881173975e-07
1.05000632216e-06
1.04482282826e-06
9.96684779892e-07
9.96623099405e-07
1.04819808196e-06
9.95808711042e-07
9.95639256922e-07
9.96558209316e-07
9.96754625065e-07
1.03800533324e-06
9.96942816138e-07
9.96730237752e-07
1.04418601545e-06
9.96677556147e-07
9.96781269012e-07