/*--------------------------------*- C++ -*----------------------------------*\
  =========                 |
  \\      /  F ield         | OpenFOAM: The Open Source CFD Toolbox
   \\    /   O peration     | Website:  https://openfoam.org
    \\  /    A nd           | Version:  8
     \\/     M anipulation  |
\*---------------------------------------------------------------------------*/
FoamFile
{
    version     2.0;
    format      ascii;
    class       volVectorField;
    location    "0";
    object      U;
}
// * * * * * * * * * * * * * * * * * * * * * * * * * * * * * * * * * * * * * //

dimensions      [0 1 -1 0 0 0 0];

internalField   nonuniform List<vector> 
50271
(
(2132.99999933 -6.73567618949e-07 0)
(2132.99999741 -1.88933802419e-06 0)
(2132.9999897 -7.90817241021e-06 0)
(2132.99995791 -3.25131765316e-05 0)
(2132.99982702 -0.000133815423022 0)
(2132.99928761 -0.000551669364692 0)
(2132.99706366 -0.00227799468091 0)
(2132.98791196 -0.0093886393659 0)
(2132.95019192 -0.0388872263203 0)
(2132.79635406 -0.162471032185 0)
(2132.19862696 -0.691688903355 0)
(2132.58883996 -0.147925556633 0)
(2132.12673714 -0.20919879661 0)
(2131.21553083 -1.34846794924 0)
(2085.95359041 -46.544833188 0)
(2127.57810784 -4.45469125345 0)
(1813.85671176 -13.9073962476 0)
(1999.23984214 315.900315889 0)
(2064.97294334 -69.9507946927 0)
(2129.7056984 -2.36796370762 0)
(2060.19143579 -64.7601302198 0)
(2123.10487967 -8.72394764193 0)
(2112.34682892 -17.8776251945 0)
(2125.60961516 -5.36107684345 0)
(2118.98871715 -11.2520247021 0)
(2021.22461572 310.446723492 0)
(2027.53671404 -105.701797242 0)
(2131.83045973 -0.0797655167946 0)
(2116.03632118 -23.6291036615 0)
(2031.525166 -102.32273329 0)
(2011.14843118 304.692439222 0)
(2111.73877912 -18.4580805039 0)
(2034.84556088 -90.5364982548 0)
(2099.66339526 -38.0748362325 0)
(2004.64916973 235.545698592 0)
(1996.70751868 -126.363618991 0)
(2125.8231897 -5.36475727589 0)
(2105.35480203 -2.46733306775 0)
(2106.55943394 -10.8553123109 0)
(2012.96164764 318.675716384 0)
(2067.38597494 -59.0761826317 0)
(2052.95839758 -76.7510764601 0)
(2062.85473265 -74.3644614285 0)
(2098.16928027 -32.632991296 0)
(2117.58401546 -11.3076119506 0)
(2103.03863583 -23.5830974746 0)
(2081.86531303 -59.923469474 0)
(2003.16079704 -126.199606668 0)
(2014.80730887 279.523564289 0)
(2058.77851896 -67.6144212612 0)
(2006.93400513 -126.692271683 0)
(2051.10121041 -87.1385612713 0)
(2131.27108196 -1.28992091852 0)
(2016.91182405 -106.099815482 0)
(2114.3900521 -15.7354866363 0)
(2102.19842359 -39.0469539064 0)
(2112.40372913 -22.8078816859 0)
(2116.35474757 -11.0722343199 0)
(2073.70968708 -65.3965996678 0)
(2102.52308365 -38.268741385 0)
(2076.47895822 -65.3686370392 0)
(2011.25022746 310.374683822 0)
(2103.96475029 -12.6913409693 0)
(2091.17068256 -43.9376587691 0)
(2096.54853703 -31.7859690329 0)
(2066.92299297 -62.1264912983 0)
(2094.50186112 -36.8685495641 0)
(2059.62084552 -76.7426142216 0)
(2050.06606946 -86.4365784075 0)
(2065.37597897 -65.6528739842 0)
(2076.51387328 -62.4097007685 0)
(2051.66386349 -84.4529052823 0)
(2073.41331816 -65.0279083642 0)
(1912.70676868 78.4052711074 0)
(1940.53383377 -161.879151978 0)
(2004.13304843 -78.9172017707 0)
(2053.66051626 53.3809347036 0)
(2056.05636277 50.1974732871 0)
(2003.9656673 319.478687592 0)
(2054.54163 37.9573963546 0)
(2046.26259359 18.3462109364 0)
(2022.83183087 309.754030751 0)
(2033.38869412 -91.3116502179 0)
(2023.39099474 -101.570443534 0)
(2026.14300338 -103.354395352 0)
(2039.01117071 -95.0092402007 0)
(2055.10482932 -81.8203266164 0)
(2039.64769653 -95.8356230499 0)
(2012.07306516 302.759430996 0)
(2052.78802946 37.7899633042 0)
(2053.6025627 39.0189889513 0)
(2036.19027582 -93.5114920246 0)
(2039.56395079 -96.6368655374 0)
(2042.72088921 -85.6130691798 0)
(1983.92344687 -111.558119261 0)
(1952.14819272 -147.572798052 0)
(1957.13562079 162.191525301 0)
(2024.09603649 -100.828062448 0)
(1977.21498233 -155.276582159 0)
(1983.94114272 -147.483051732 0)
(2101.81781581 -22.1233733064 0)
(2015.96563451 -101.355870856 0)
(2082.45844085 -42.7267831252 0)
(2109.32205281 -6.19367093072 0)
(2092.6019974 -0.647576013974 0)
(2088.52786722 5.57317178987 0)
(2090.34319143 -4.15965412665 0)
(2092.16222154 -3.32241231944 0)
(2107.98733192 -7.68806973937 0)
(2008.11389276 321.169054512 0)
(2056.95004693 49.3778193204 0)
(2056.69110552 47.6693270343 0)
(2053.54533073 -78.4948789583 0)
(2053.98835525 -78.3617200107 0)
(2057.25555298 -73.8712143637 0)
(2052.35667867 -91.8386846405 0)
(2054.45975651 -75.2256454091 0)
(2076.98693153 -52.4927628654 0)
(2006.0803203 -125.330654395 0)
(2032.91275106 -98.8377676389 0)
(2024.12722809 -115.391788824 0)
(2017.8544338 299.497059443 0)
(2033.22466219 -16.528746266 0)
(2017.15586617 -63.1830045708 0)
(2013.3522896 -123.743258252 0)
(2017.03317639 -115.759417033 0)
(2028.99778038 -100.380368945 0)
(2031.95868503 -105.922259548 0)
(2021.25436219 -113.490294254 0)
(2027.82887431 -111.490343664 0)
(2114.93589569 -15.3858844767 0)
(2126.84823499 -4.93578352949 0)
(2132.57594282 -0.0750650177112 0)
(2065.46722657 -61.1862500252 0)
(2106.1921299 -18.1023250056 0)
(2071.78806221 -54.0241582566 0)
(2053.29837304 42.638629662 0)
(2053.41439654 40.9930385721 0)
(2013.58727816 306.554531801 0)
(2102.95427708 -20.0593351473 0)
(2085.07758979 -10.8587672012 0)
(2087.92125679 -5.73353590715 0)
(2084.43204347 -35.1264656496 0)
(2083.03429423 -20.9866312179 0)
(2101.31493275 -24.4308332846 0)
(2048.16955768 -87.2083188312 0)
(2042.2795575 -93.352773369 0)
(2046.70671416 -87.3701012865 0)
(2052.57537341 -78.6355996373 0)
(2046.22154736 -83.6540912566 0)
(2047.19351835 -84.8562875847 0)
(2054.4537684 -80.2016232015 0)
(2063.63064785 -72.1484669549 0)
(2055.51342813 -80.4223120725 0)
(2132.99984726 -0.000188839838952 0)
(2132.99953514 -0.000355206816325 0)
(2132.99855096 -0.00120834186728 0)
(2132.99532105 -0.00394656808826 0)
(2132.9848031 -0.0128557234314 0)
(2132.95077402 -0.0416967946223 0)
(2132.84109706 -0.134704317797 0)
(2132.48887873 -0.434363380608 0)
(2131.37464179 -1.38264224975 0)
(2127.87263232 -4.31368866606 0)
(2116.68467215 -13.8686643623 0)
(2103.67787002 -23.7005458874 0)
(2086.25324191 -62.6601926218 0)
(2094.84735224 -42.7250244564 0)
(2108.38162888 -33.9843185018 0)
(2105.54156264 -28.4997564529 0)
(1998.36971887 312.771011618 0)
(1967.405618 272.426749764 0)
(2127.57107405 -3.31944454937 0)
(2108.23637009 -27.6937318734 0)
(2122.99025112 -11.9312871423 0)
(2109.1361733 -39.334402638 0)
(1980.1494742 297.200116795 0)
(2129.98387652 2.73938839846 0)
(2122.2597611 -14.7594401843 0)
(2127.8623253 3.66395531701 0)
(2130.0820612 2.84244641829 0)
(1978.51498023 295.150480112 0)
(2123.91692248 -21.1459348537 0)
(2129.91284665 -6.5420466924 0)
(2129.61263015 -1.14472459514 0)
(1991.37645175 307.677558377 0)
(2109.89343199 4.27642562007 0)
(2107.29872716 -0.735066109324 0)
(2100.21338283 5.24839913141 0)
(2102.36920903 6.53673779014 0)
(1971.06139197 283.156874193 0)
(2103.77395875 6.45851397642 0)
(2109.42243107 5.64554257934 0)
(1989.06601979 304.625435708 0)
(2129.25795111 -0.846365035663 0)
(2120.88071079 3.29680776426 0)
(2119.36838223 4.87397823721 0)
(2121.2646815 -5.97039896644 0)
(2121.4522888 -0.60567405276 0)
(2128.33948638 -3.56163357708 0)
(2128.74798727 3.17694240213 0)
(2118.32157381 4.04642137519 0)
(2117.74243124 3.48509091234 0)
(2119.93806153 4.50288231411 0)
(2119.32238224 4.52586554782 0)
(2129.1546289 3.72816619123 0)
(1972.8412301 286.238433917 0)
(2103.78963614 6.20263687574 0)
(2103.71476627 5.59797982236 0)
(1996.74709262 312.272187368 0)
(2050.55938687 55.8307991978 0)
(2052.31614403 55.4395492966 0)
(2023.64114861 73.137173014 0)
(2025.19391665 72.724019047 0)
(1968.21510201 275.64188607 0)
(2036.47780486 62.7639243889 0)
(2039.27413424 60.9265168604 0)
(1982.92994061 299.914846324 0)
(1977.05780783 291.840695028 0)
(2034.39404541 66.4300813772 0)
(2034.94457453 64.6932957189 0)
(2049.10075626 57.2529952603 0)
(2050.14733319 56.099813674 0)
(1994.1881654 309.614981399 0)
(2109.70910244 1.53141689094 0)
(2090.61152863 7.22543138618 0)
(2090.13887344 8.69769230409 0)
(2088.66622007 6.53939225707 0)
(2088.90803748 6.66464420992 0)
(2107.69523239 0.176701133741 0)
(2100.49612202 5.97400493264 0)
(2072.91775009 13.6260952469 0)
(2071.80027879 13.2087013222 0)
(2076.2315966 12.3078753785 0)
(2073.92195039 13.427337229 0)
(2100.97726603 6.34887016439 0)
(1969.09405569 278.688556076 0)
(2026.83986789 70.4532332717 0)
(2028.49865428 69.3304825298 0)
(2104.68844471 6.99380954473 0)
(2082.67992586 9.79091689299 0)
(2080.73315189 10.0924606536 0)
(2088.73430845 9.18773820167 0)
(2085.61481652 9.38344380812 0)
(2106.50723464 6.81415844435 0)
(1986.249385 301.999253662 0)
(2042.99639209 59.9490940744 0)
(2047.24497138 59.1068028922 0)
(2030.60448434 69.6508429825 0)
(2032.67510671 68.5796655138 0)
(1974.46373322 288.5184487 0)
(2104.52130148 5.45577408122 0)
(2078.7910842 11.8227336768 0)
(2077.78101605 12.1002335228 0)
(2079.23297742 10.3045705463 0)
(2079.47511386 10.8538154669 0)
(2104.81818893 5.3664573363 0)
(2132.99808488 -0.00234166219832 0)
(2132.99511044 -0.00380553509525 0)
(2132.98605418 -0.0120476950786 0)
(2132.95929596 -0.0356358941872 0)
(2132.88199522 -0.103989281345 0)
(2132.66251778 -0.299133947807 0)
(2132.0554884 -0.842796979002 0)
(2130.42881613 -2.29565894215 0)
(2126.11321266 -6.04751236536 0)
(2118.63902642 -13.2743282827 0)
(2115.34082157 -19.3251931687 0)
(2112.7290068 -26.0901863177 0)
(2131.24664019 -8.64397553983 0)
(2130.95461365 -0.503507224983 0)
(2132.16122835 3.84981393128 0)
(2125.32169591 -17.2308219672 0)
(2132.66035896 -2.50240219352 0)
(2121.87240824 -18.2113131351 0)
(2134.64292187 0.271613671846 0)
(2133.16027286 1.70257160819 0)
(2132.88436807 -0.322603904467 0)
(1966.52599292 268.238676605 0)
(1957.33107851 170.906280484 0)
(2132.9148379 3.92758647779 0)
(1957.21237575 163.004982453 0)
(1955.42323699 86.5518519599 0)
(2129.74447829 2.37591051837 0)
(2129.98233755 2.42760255177 0)
(2129.95227078 3.50593382695 0)
(2133.76852352 1.32536060308 0)
(2127.73790851 3.84538136208 0)
(2126.3257928 2.80446901382 0)
(2131.21870126 3.46118940044 0)
(1960.7768228 229.730777569 0)
(2124.82297493 4.42617430293 0)
(2126.67686247 4.49207057579 0)
(2120.82000077 3.1771947896 0)
(2124.12748776 4.34871757677 0)
(1960.29101558 222.823165935 0)
(2133.67865723 2.57229678047 0)
(2129.86331973 4.1668454327 0)
(2129.00302565 4.32812537049 0)
(1956.1440343 120.215258744 0)
(2116.06333955 1.30342788277 0)
(2119.56836338 2.77389025969 0)
(2113.86567882 1.88192744107 0)
(2115.40684507 1.26422687299 0)
(1955.08477073 111.963706168 0)
(2130.12284729 3.0543497902 0)
(2125.25099655 2.16181258288 0)
(2124.46884596 1.87662197561 0)
(1964.48983789 257.496003847 0)
(2097.29647084 6.94909749341 0)
(2100.20409165 5.15417707964 0)
(2083.70617494 3.55853738384 0)
(2087.59095433 4.50208963442 0)
(1958.25782065 192.707266594 0)
(1957.18730434 145.470690459 0)
(2079.88463528 3.60678538532 0)
(2082.80516691 3.36034691254 0)
(2067.70840804 2.39956638493 0)
(2072.04130382 3.28453411189 0)
(1955.04306207 91.1877469785 0)
(2093.47736429 6.39447744451 0)
(2096.01770419 7.08504400028 0)
(1963.62963273 251.753689467 0)
(2125.00385952 4.55048240732 0)
(2112.99877745 3.74301976644 0)
(2111.97586098 3.48879716469 0)
(2116.55583927 3.49994010912 0)
(2114.73510473 3.8351849435 0)
(2125.74022729 4.85384947707 0)
(2121.95064523 3.88841232255 0)
(2106.9663803 2.3816828215 0)
(2104.9951348 1.7323810896 0)
(2110.73206629 3.36687887266 0)
(2109.03744883 2.95408591541 0)
(2123.13054057 4.09209457753 0)
(1958.66480857 199.472004874 0)
(2089.1091457 4.71165528754 0)
(2092.61186522 6.32447327129 0)
(2076.28552677 3.65080653726 0)
(2079.0478431 3.49785935535 0)
(1955.8756502 137.549110018 0)
(2117.319382 1.73364434445 0)
(2100.2924503 1.90467724079 0)
(2098.59179447 2.49803935511 0)
(2103.1861484 1.34370913086 0)
(2101.44037311 1.55163434232 0)
(2118.40219788 1.95921533003 0)
(2114.39485592 1.91073639684 0)
(2090.11306947 1.92834394644 0)
(2087.38145591 1.61482141288 0)
(2097.33144177 3.63502374606 0)
(2091.11088759 2.4104857305 0)
(2114.45061478 1.64740263434 0)
(1954.62128532 94.7155043729 0)
(2073.27678809 3.69617029785 0)
(2075.29228207 3.28054444552 0)
(1965.39339369 264.083296844 0)
(2023.28390482 75.8101151438 0)
(2023.26710481 73.4387308189 0)
(2003.988768 106.841887916 0)
(2005.39795998 105.47210968 0)
(1957.58215865 179.558790271 0)
(1956.62793011 156.149441798 0)
(2004.00967763 111.387135227 0)
(2004.20518619 107.862639978 0)
(2000.14091225 132.573417605 0)
(2000.53716551 131.220821971 0)
(1955.09424251 86.3759878385 0)
(2013.72901771 87.7799445558 0)
(2015.20616464 85.9690065031 0)
(1961.80940686 236.96272429 0)
(1960.07976878 215.635168888 0)
(2011.27392969 92.9568583256 0)
(2012.4944077 90.7039937394 0)
(2000.44873124 126.538545849 0)
(2001.64793009 124.655026257 0)
(1956.99798009 127.93459333 0)
(1954.41379698 105.437246852 0)
(1999.61390537 129.878559901 0)
(1999.42586767 127.451548543 0)
(2020.7417958 79.3467273835 0)
(2022.13786511 78.5450920701 0)
(1964.91780688 260.708945119 0)
(2099.00419673 6.4177576455 0)
(2070.90608455 15.010697275 0)
(2069.06525359 15.7672460543 0)
(2071.67734956 12.9168129814 0)
(2071.76470178 13.964671587 0)
(2099.9695605 5.63943879558 0)
(2084.82475299 4.04701999451 0)
(2054.0623107 19.9039055117 0)
(2052.58988903 19.8555900097 0)
(2057.10610262 18.4221608176 0)
(2055.52790346 19.1813686322 0)
(2086.26877513 4.28045146899 0)
(1958.16700859 186.970163696 0)
(2006.58284594 102.467743485 0)
(2007.75741967 99.3816302541 0)
(2002.23930225 117.4933596 0)
(2003.78761872 115.823011577 0)
(1957.50026943 151.731526894 0)
(2080.92422833 3.97628814076 0)
(2050.69748929 23.1889301708 0)
(2049.13336041 23.2641069858 0)
(2052.22257223 20.2008803701 0)
(2051.73627303 21.2396726167 0)
(2082.16169149 3.70506335029 0)
(2069.4024286 2.821892293 0)
(2040.90956382 26.7888893431 0)
(2039.27527069 27.2520465921 0)
(2042.34262684 27.2193911822 0)
(2042.00757576 26.6346984359 0)
(2070.87621363 2.99810268584 0)
(1955.03075294 87.8329317811 0)
(2000.46000908 131.143418984 0)
(2000.11666535 132.113340236 0)
(2094.04026321 6.67398316902 0)
(2064.77141082 17.4043826987 0)
(2063.79850456 17.5309475224 0)
(2067.62204425 16.6806954195 0)
(2066.22060901 17.4131748095 0)
(2094.99542887 6.96045357624 0)
(1963.23501111 245.031436275 0)
(2017.10456214 84.2171626309 0)
(2018.86265664 81.2879167654 0)
(2008.78153675 96.4326112787 0)
(2009.86441972 94.610311122 0)
(1959.89212503 207.599343053 0)
(2090.23291166 5.40970673806 0)
(2059.64820865 18.2098836279 0)
(2058.35754053 18.1837733113 0)
(2062.65460635 18.2440852704 0)
(2061.20586699 18.4219346764 0)
(2091.60536577 6.0024614383 0)
(2077.30124298 4.08995849939 0)
(2047.06105251 25.678532377 0)
(2045.69301774 25.7874016827 0)
(2048.40858479 23.3366427234 0)
(2048.07238545 24.1038418195 0)
(2078.48934941 3.93548647398 0)
(1955.66266542 131.538459114 0)
(2001.59672183 120.735512574 0)
(2001.52325441 117.637127885 0)
(2001.15394497 134.049992245 0)
(2001.15986334 132.850717516 0)
(1953.87345193 98.4918602254 0)
(2074.54758192 4.03161560463 0)
(2044.2799813 27.9049893423 0)
(2043.06114127 28.0282286225 0)
(2044.68225707 25.7455743652 0)
(2044.49482344 26.3225343561 0)
(2074.80609949 3.60471742214 0)
(2102.63051788 4.11406022375 0)
(2103.07161869 4.2135806781 0)
(2088.4068983 1.98144005421 0)
(2089.38945594 1.97156911572 0)
(2103.34080859 4.08692857873 0)
(2103.07892008 3.89930211531 0)
(2102.19431636 3.90854199605 0)
(2101.28401541 3.78083198926 0)
(2093.04587432 2.85403632217 0)
(2132.98696513 -0.0157529212703 0)
(2132.97194021 -0.0220962789231 0)
(2132.92660179 -0.065697290171 0)
(2132.80604651 -0.175801287379 0)
(2132.4947184 -0.46320121577 0)
(2131.7237648 -1.18044711249 0)
(2129.87903975 -2.91068814371 0)
(2125.99397358 -6.92460341833 0)
(2125.69984945 -6.84984765183 0)
(2122.88266479 -10.3676615853 0)
(2121.15231501 -11.4682557244 0)
(2121.7525293 -11.6395877688 0)
(2119.91299401 -13.7230536177 0)
(2123.0254561 -11.8505477144 0)
(2121.98512422 -14.9169544434 0)
(2130.72943747 -6.02396710412 0)
(2134.05725147 0.678519321197 0)
(2129.2335326 2.33328064886 0)
(2132.32732524 1.78542402297 0)
(2131.08207178 1.3398038909 0)
(2132.82097869 0.948381591082 0)
(1955.81891065 85.9639083651 0)
(1958.37153828 76.7616477033 0)
(2126.78312602 0.0402357202502 0)
(2123.56900615 1.31914475842 0)
(2122.256734 0.156025131026 0)
(2128.62715964 1.77153210595 0)
(1957.53566684 85.3115880153 0)
(2110.60903064 -1.45253357541 0)
(2113.46037915 1.56513783646 0)
(2109.20818685 -2.13875235056 0)
(2110.03346388 -2.3194085045 0)
(1957.28591069 83.863788825 0)
(2127.55326978 1.05429039097 0)
(2120.68305096 -1.42678346732 0)
(2119.75228129 -2.04381983481 0)
(1956.07508263 84.7568217321 0)
(2061.67360294 -0.512104734715 0)
(2065.87051822 1.97039607485 0)
(2060.6729886 3.8469318977 0)
(2060.883 1.82001157343 0)
(1957.98930276 81.7418297523 0)
(2061.48697024 0.592671796186 0)
(2061.57647912 -1.01472321269 0)
(1956.13151294 85.75608598 0)
(2111.75327596 -0.274911482418 0)
(2083.44338755 -2.39756464517 0)
(2082.62373942 -1.38780328362 0)
(2086.29580075 1.13404490152 0)
(2083.12239989 -1.75474325174 0)
(2112.68246226 0.643567269341 0)
(2109.09421452 -2.38979277223 0)
(2082.35908238 -1.04146909912 0)
(2082.7836127 -0.726576848206 0)
(2082.17347021 -1.49675488919 0)
(2082.28888007 -1.19331574458 0)
(2109.24302315 -2.55012147572 0)
(1957.44339171 82.0029681751 0)
(2060.72386455 1.12847426223 0)
(2060.80782633 0.614141018934 0)
(1955.5028315 83.8141047741 0)
(1998.06396485 133.394028344 0)
(1999.34730531 132.933554951 0)
(1993.30701191 130.402396091 0)
(1993.18595553 131.13378478 0)
(1958.01978689 78.8322371429 0)
(1996.35307207 133.483001129 0)
(1996.12308621 133.71540479 0)
(1957.11816298 86.2795873425 0)
(1957.01739688 82.803852131 0)
(1994.27298069 133.450384991 0)
(1995.34596038 134.174688513 0)
(1996.83560644 134.416982022 0)
(1997.58734076 134.733810577 0)
(1955.75818221 84.1187755381 0)
(2062.42169537 0.202137147637 0)
(2034.23281644 27.7410028779 0)
(2033.38149462 28.0852562824 0)
(2037.44664546 27.7979007129 0)
(2034.94020718 27.3969903408 0)
(2063.64762931 1.11086661042 0)
(2060.78293857 3.48163462396 0)
(2029.40381457 38.8861459121 0)
(2029.19296218 39.2338730458 0)
(2029.16981583 37.6983200615 0)
(2029.2275684 38.3372146814 0)
(2060.9128738 2.77238234052 0)
(1958.13163897 80.7673856777 0)
(1993.21016351 132.000322523 0)
(1993.26887047 132.623116483 0)
(2061.8184274 -0.189525701489 0)
(2032.21400105 31.2224063438 0)
(2031.972186 32.9991948834 0)
(2033.1304947 28.6044700649 0)
(2032.96894054 29.7937421739 0)
(2061.9987122 -0.63454756682 0)
(1956.7336088 86.2698200381 0)
(1996.13992926 132.709457036 0)
(1996.08194127 134.018885498 0)
(1993.18328691 132.51826555 0)
(1993.50800395 132.596801874 0)
(1957.10823629 82.270699311 0)
(2060.55507222 0.800471218934 0)
(2029.77152949 35.2579685337 0)
(2029.32049396 36.6582782073 0)
(2030.81316029 33.7929385643 0)
(2030.61852362 34.3294453162 0)
(2060.60330742 0.634191476389 0)
(2097.07756961 0.49035590626 0)
(2097.27893018 0.0854387288995 0)
(2082.27732378 -1.46172387223 0)
(2082.47544088 -0.855267893467 0)
(2097.00942899 0.913771199817 0)
(2096.98819817 0.640314715876 0)
(2097.22545369 0.897677135997 0)
(2097.17330504 0.821769034551 0)
(2082.66689949 -0.771650510959 0)
(2082.13750233 -1.55349824599 0)
(2097.5565812 -0.200510331248 0)
(2097.75485146 -0.407179956188 0)
(2098.04207161 -0.462241919845 0)
(2098.7230225 -0.717249416254 0)
(2083.19044083 -1.92988857383 0)
(2083.38336865 -2.26755719654 0)
(2099.35298452 -0.975412025606 0)
(2099.71181494 -0.678616254174 0)
(2099.98510304 0.14033912179 0)
(2100.48221533 1.92862586154 0)
(2083.79305111 -0.768996630603 0)
(2084.89293627 0.243758466094 0)
(2101.21520328 2.87236924274 0)
(2101.99382741 3.79353274701 0)
(2132.93820454 -0.0743246927859 0)
(2132.88792896 -0.0883644954218 0)
(2132.64566733 -0.27744454635 0)
(2132.72781707 -0.251915088737 0)
(2132.21191323 -0.758866136546 0)
(2132.34008903 -0.617301178603 0)
(2131.27197506 -1.66781897025 0)
(2131.45202751 -1.46652334435 0)
(2129.32885173 -3.59043747534 0)
(2129.49559103 -3.35804188857 0)
(2126.33862467 -6.67167012273 0)
(2124.04849771 -9.32749745328 0)
(2123.19817113 -10.3579226962 0)
(2123.7652379 -10.4831454087 0)
(2128.40514902 -6.99298256465 0)
(2132.4874119 -2.28934947527 0)
(2132.13087152 0.560317584794 0)
(2125.5854159 -0.776210711637 0)
(2129.58790036 0.127350792713 0)
(2129.17332878 -0.894845241046 0)
(2131.39537022 0.0258933278125 0)
(1958.74474302 74.8683078777 0)
(1962.95130338 64.9030035497 0)
(2125.00621375 -0.278593929317 0)
(2119.00470858 -1.5806044041 0)
(2118.57534949 -0.915690023157 0)
(2125.14341374 -0.873222513681 0)
(1960.01717382 70.5813961866 0)
(2108.02257801 -0.702653663693 0)
(2109.03176946 -1.59203345032 0)
(2106.74753943 -1.02798030471 0)
(2107.37086129 -0.887810294755 0)
(1960.51030997 70.0742792384 0)
(2125.26063781 -0.636328471299 0)
(2118.27889372 -1.04356947227 0)
(2117.91437749 -0.994809654179 0)
(1959.69752173 73.8594026185 0)
(2059.13328115 4.96067436388 0)
(2060.34723475 4.2453746801 0)
(2057.49934322 9.6792936018 0)
(2056.62636986 7.47407060974 0)
(1961.55417197 67.0139005051 0)
(2059.03105911 6.1207673608 0)
(2058.93113176 4.80784748064 0)
(1959.55813992 73.3774053402 0)
(2108.60944176 -0.822344565905 0)
(2082.40739642 -0.859597514073 0)
(2081.72804601 -0.220741685943 0)
(2082.79381196 -0.575350920467 0)
(2082.40982751 -0.775366423493 0)
(2109.04156199 -1.18978073297 0)
(2106.94509886 -1.19480177701 0)
(2080.43790156 -0.958289284282 0)
(2080.81151045 -0.03362607253 0)
(2081.03239466 0.158107173444 0)
(2080.01363615 -0.765010213457 0)
(2107.13265464 -1.15042935061 0)
(1960.90894343 67.7258194509 0)
(2056.36052633 7.58593226899 0)
(2058.14917771 7.40094932035 0)
(1959.05850839 74.1427004142 0)
(1992.57644695 129.004248861 0)
(1992.93074098 129.601522304 0)
(1992.47624208 117.213686039 0)
(1992.32222821 118.376071962 0)
(1962.63858529 65.7813528087 0)
(1991.94201633 124.832064804 0)
(1991.98439739 125.791956609 0)
(1959.71734162 71.3133564059 0)
(1960.91864979 69.2947404644 0)
(1991.94036013 124.261350933 0)
(1992.07855151 124.542009185 0)
(1992.10028406 128.941447238 0)
(1992.39478301 129.086602451 0)
(1959.41288483 73.9100588349 0)
(2059.62003681 4.95297592542 0)
(2027.6548983 42.149793319 0)
(2026.99534587 42.8297822925 0)
(2028.77720115 39.7740857938 0)
(2028.24523899 40.9058180726 0)
(2060.00108317 4.73470744568 0)
(2057.73963038 9.09520552076 0)
(2026.34832341 52.6720233407 0)
(2026.14826168 53.702905099 0)
(2024.40916816 50.3414496318 0)
(2025.47099174 51.3473945584 0)
(2057.4704582 8.1085449397 0)
(1962.18918188 66.2146971621 0)
(1991.76381676 119.294663921 0)
(1990.49880375 119.882924681 0)
(2059.26707153 5.33072465326 0)
(2027.57762845 43.5601927603 0)
(2027.36455587 45.0460830537 0)
(2026.57307268 43.0786524273 0)
(2026.88583904 43.1015848622 0)
(2059.24264306 4.80495797469 0)
(1959.62726364 72.3862171979 0)
(1991.39966088 127.00877261 0)
(1991.49825634 128.067666659 0)
(1990.30606733 120.950599985 0)
(1990.97321239 122.827800752 0)
(1960.79412709 68.2408244973 0)
(2056.73892515 7.82283845781 0)
(2025.07244186 49.615986132 0)
(2024.40731966 49.9039871256 0)
(2026.80112482 47.2180318369 0)
(2026.13296479 48.9019623204 0)
(2057.4787978 7.8891877238 0)
(2082.68698729 -0.528835157035 0)
(2097.14859849 1.15296514533 0)
(2097.20168317 1.02814994914 0)
(2097.10474242 0.94227707111 0)
(2097.12342416 1.04955946848 0)
(2082.55578791 -0.598376424632 0)
(2082.34410706 -0.819188290308 0)
(2096.86835436 1.09161111685 0)
(2097.01918756 0.970364419059 0)
(2096.14078806 1.55083189019 0)
(2096.49751569 1.31621936039 0)
(2082.10483676 -0.627623501659 0)
(2080.45728885 0.00668372507438 0)
(2095.15329962 1.59891670949 0)
(2095.56608625 1.69012901999 0)
(2094.83616773 0.952928762476 0)
(2094.85472382 1.31821747908 0)
(2080.05900275 -0.393496879575 0)
(2080.98109491 -0.682751460741 0)
(2095.55350811 1.02925859538 0)
(2095.17713659 0.789530855309 0)
(2095.32153632 1.55993741924 0)
(2095.5188424 1.21505044174 0)
(2081.00107707 -0.300235491408 0)
(2132.76541732 -0.278566580257 0)
(2132.25279642 -0.825752675388 0)
(2132.09584468 -0.690828277781 0)
(2131.15816839 -1.86493620404 0)
(2129.21521698 -3.76965477835 0)
(2126.5944849 -6.5504847266 0)
(2124.74568707 -8.72990627714 0)
(2124.22739216 -9.43216464634 0)
(2124.43961623 -9.6187276255 0)
(2127.09119647 -7.49869262047 0)
(2131.23623401 -3.33388615687 0)
(2131.92670263 -1.74932111819 0)
(2130.49911737 -0.534941266043 0)
(2124.70261298 0.0083880212489 0)
(2128.52959425 -0.958457072759 0)
(2128.29505235 -0.810899166494 0)
(2130.45259295 -0.802314637849 0)
(1962.78222061 62.7304038785 0)
(1965.40200338 49.1811298402 0)
(2123.94156598 1.12878317412 0)
(2117.6032198 -0.754903838762 0)
(2117.26824116 -0.367675402477 0)
(2124.40983432 0.365382852121 0)
(1964.53588683 55.1902499163 0)
(2106.23944245 -0.452077352698 0)
(2106.4071506 -0.857432102411 0)
(2105.22310109 -0.866471736702 0)
(2105.85627575 -0.44642755729 0)
(1964.60954265 53.8364347162 0)
(2124.2684636 0.779934900942 0)
(2116.97142011 -0.322439875122 0)
(2116.53050015 -0.425588098617 0)
(1963.43633163 58.894461673 0)
(2055.9120665 10.7426294139 0)
(2056.8829699 10.1567075039 0)
(2054.15777876 13.8814831561 0)
(2054.2994504 13.9694913553 0)
(1966.0440707 52.5373088678 0)
(2056.08613193 11.4557658803 0)
(2055.74202423 10.7865972829 0)
(1964.20630731 58.3914519684 0)
(2106.49474173 -0.599394985721 0)
(2079.78142873 -0.38361461795 0)
(2079.74312893 -0.372488937399 0)
(2080.28979548 0.147086418737 0)
(2079.75537126 -0.224601500618 0)
(2106.51354583 -0.728582215754 0)
(2105.29020237 -0.842843520419 0)
(2077.99455129 -0.191221335158 0)
(2078.129583 -0.983412950693 0)
(2079.4580359 -0.288146328799 0)
(2078.19334749 -0.198610526632 0)
(2105.41609169 -0.595753743821 0)
(1965.60325533 52.5421758653 0)
(2054.54270373 13.3904663132 0)
(2055.78451634 11.7507064792 0)
(1962.63661149 60.7709344062 0)
(1992.06825955 114.688578564 0)
(1992.33240607 116.070859769 0)
(1992.79204655 92.1457503965 0)
(1993.23340408 95.2642164424 0)
(1965.50380021 50.3065237255 0)
(1993.31242078 106.432292079 0)
(1993.29648276 108.049937844 0)
(1964.53010876 56.5127862232 0)
(1964.79404756 52.947077424 0)
(1993.09671085 103.018525603 0)
(1993.22550045 104.627852069 0)
(1992.06645785 111.654809996 0)
(1991.99842426 113.072563279 0)
(1962.89086617 59.2698639565 0)
(2056.18011826 10.6757208085 0)
(2024.7846851 56.6474477125 0)
(2024.48427516 57.4562625879 0)
(2025.6745341 54.7153276998 0)
(2025.18888839 55.6985435593 0)
(2056.43663529 10.4910177742 0)
(2053.96883724 14.0313754574 0)
(2023.71369511 68.1471006732 0)
(2023.56630109 68.7456978069 0)
(2024.05407109 65.5399304075 0)
(2023.97694767 67.0050025594 0)
(2054.05112546 14.2481533826 0)
(1965.99649542 51.7079735755 0)
(1993.37083511 98.0016116084 0)
(1993.22335753 98.9312124977 0)
(2056.28485218 11.0956240574 0)
(2025.42182466 59.283832204 0)
(2025.31417453 60.1320462146 0)
(2024.32587043 58.1539715528 0)
(2024.64412112 58.63174978 0)
(2055.97907254 10.7965817514 0)
(1964.47436599 57.6154870447 0)
(1992.76336745 109.602763223 0)
(1992.32505341 110.625185163 0)
(1993.20921681 100.011879389 0)
(1993.14915684 101.411904813 0)
(1965.14411387 52.4297432812 0)
(2054.88736752 12.8231074329 0)
(2024.40700248 63.0888327601 0)
(2024.18099755 64.2537554263 0)
(2024.9562913 61.0833697396 0)
(2024.575354 62.0317173858 0)
(2055.31051256 12.2323621583 0)
(2079.87361148 0.133889846691 0)
(2094.53177576 1.97214466472 0)
(2094.85324364 1.81981406882 0)
(2094.60781803 1.79551118445 0)
(2094.57868262 1.88461364846 0)
(2079.76614581 -0.0328412759845 0)
(2080.00264297 -0.499560098228 0)
(2094.91366856 1.57300489776 0)
(2094.69456074 1.66247414402 0)
(2094.54180482 1.68606867621 0)
(2094.7484001 1.61192417101 0)
(2079.95605253 -0.424870043693 0)
(2078.85711074 -0.284396696675 0)
(2093.68682662 1.91141681107 0)
(2094.17978979 1.87043400734 0)
(2093.12188808 1.86713048791 0)
(2093.37341386 1.93844765968 0)
(2078.46121658 -0.235565710518 0)
(2077.90901947 -0.408698396709 0)
(2093.0640519 1.47420113953 0)
(2092.99263489 1.75456252684 0)
(2093.09981189 1.24234838831 0)
(2093.07509986 1.25444962655 0)
(2078.0004537 -0.800398235762 0)
(2131.07282538 -2.11594706655 0)
(2130.93917902 -1.55553251206 0)
(2129.28571546 -3.90829947019 0)
(2126.89714937 -6.26679474704 0)
(2125.30203454 -8.03118565196 0)
(2124.9203259 -8.80034255919 0)
(2125.06434554 -8.95764940461 0)
(2126.7292537 -7.46092372752 0)
(2129.8611199 -4.29538532698 0)
(2132.20595759 -1.9031544841 0)
(2131.64612432 -1.5709827637 0)
(2130.34614757 -0.920495825423 0)
(2123.56638194 1.22457405177 0)
(2128.03080345 -0.55519843392 0)
(2127.58963542 -0.368530917597 0)
(2130.15013986 -0.884410452832 0)
(1965.51220642 48.9076472539 0)
(1969.17365343 44.2819722786 0)
(2122.36921102 1.28400790669 0)
(2115.95017822 -0.359957312277 0)
(2115.43760366 -0.364996516938 0)
(2123.17172469 1.26097787349 0)
(1966.98914343 46.117626204 0)
(2104.11805246 -0.412565252216 0)
(2105.08172994 -0.785147031762 0)
(2103.85749789 -0.67968721392 0)
(2103.76418856 -0.587508766932 0)
(1967.02629018 45.7850461346 0)
(2122.77326852 1.28576589458 0)
(2115.0686419 -0.510095155431 0)
(2114.49845304 -0.46827908817 0)
(1968.67881762 49.6604892656 0)
(2054.1230648 14.809266226 0)
(2054.19249136 14.2941823742 0)
(2054.32265337 19.641082576 0)
(2052.94215205 17.0202634209 0)
(1969.59456619 46.1010410248 0)
(2053.42738584 17.1649928778 0)
(2054.26612762 15.3018625855 0)
(1968.658295 48.8223705219 0)
(2104.53934238 -0.496490735296 0)
(2077.9052036 -0.676737826785 0)
(2076.92478304 0.217165767218 0)
(2078.14754842 -0.963022639598 0)
(2077.98727782 -0.795429865169 0)
(2104.87037566 -0.654144209317 0)
(2103.89717212 -0.869665389833 0)
(2076.93642107 -1.23173486125 0)
(2077.39543034 0.400008328359 0)
(2076.35848827 0.201818374663 0)
(2076.14468193 -1.06091151237 0)