/*--------------------------------*- C++ -*----------------------------------*\
  =========                 |
  \\      /  F ield         | OpenFOAM: The Open Source CFD Toolbox
   \\    /   O peration     | Website:  https://openfoam.org
    \\  /    A nd           | Version:  8
     \\/     M anipulation  |
\*---------------------------------------------------------------------------*/
FoamFile
{
    version     2.0;
    format      ascii;
    class       volScalarField;
    location    "1e-05";
    object      H2;
}
// * * * * * * * * * * * * * * * * * * * * * * * * * * * * * * * * * * * * * //

dimensions      [0 0 0 0 0 0 0];

internalField   nonuniform List<scalar> 
49758
(
1
1
1
1
1
1
1
1
1
1
1.00000000001
0.999999999992
1.0000000005
0.999999999095
0.999999996354
0.999999999817
0.914945395926
0.653446977842
1.00000001306
1.00000021512
1.00000136737
0.999999998842
0.999999997624
0.999999997391
0.999999998228
0.726353151428
0.999996147531
1.00000044451
0.999609348559
0.999989711636
0.717595418589
0.999999996513
1.00000145597
0.9999581603
0.803693697071
1.00168739375
0.999910386816
1.0170743942
1.0131259046
0.674602961477
0.999999985811
1.00000002171
1.00000073791
1.00000033722
1.0000002531
1.00000097734
1.00630482156
1.00235928405
0.776047761204
0.999999114338
0.99996034808
1.00031465152
0.999993926349
0.999885626056
1.00000092068
0.999745254106
1.00025375264
1.00036349671
1.00001973623
1.00006434237
0.999860351538
0.688976476691
1.01183959187
1.00770100211
1.0000000003
1.00000000267
0.999999994861
0.999983884319
1.00000033785
1.00000031898
1.00000734498
1.0000004412
0.999986663185
0.870627858845
1.01403470221
1.00927219846
0.973386235107
0.976195341711
0.658250950264
0.998984531624
1.00396751069
0.739041245646
0.99999874463
0.999968329041
0.999953862462
0.999903397294
0.999853374953
1.00000518689
0.708965378385
0.992184506226
0.996454183546
1.00000348505
1.0000016222
1.000001495
1.01955484765
1.01729868978
0.840919233723
1.000336034
1.00891474398
1.01224672099
1.00070184333
1.00416284828
0.999986787519
1.01577367587
1.03086283647
1.03165880208
1.0288463912
1.02989745876
1.01450306673
0.669564787301
0.979314693307
0.981990317128
1.00000012108
1.00000000046
0.999999991722
1.00504181855
1.01970361814
1.021455867
1.01392782001
1.01741767636
1.00379693675
0.762418028311
1.01168069503
1.01462394294
1.00002996167
0.999880615779
0.999927428006
0.999780579448
0.999851156197
1.00014602836
0.99995697475
0.999999105889
1.00000077336
0.999950631886
0.999990188789
0.999845314178
0.985592516292
0.988827960744
0.696954479062
1.01046478844
1.02650515726
1.02761122098
1.02425477446
1.02562152589
1.00918149129
1.00000519823
1.00000256449
0.999996808028
1.00000030887
1.00000073162
1.00000136651
1.00000163756
1.00000037021
1.0000009163
1
1
1
1
1
1
1
1
1
1
0.999999999353
1.00000000046
1.00000118387
1.00000030002
1.00000072604
0.999999994141
0.644164137384
0.529037920261
1.00001200778
0.999969800503
0.999944515193
1.00000520001
0.585666238289
0.998914713315
0.999448975583
0.998248117284
0.998740829272
0.578009551426
1.00000703799
0.999889252349
0.999838262073
0.618826059891
1.02212259898
1.01833166627
1.03457913564
1.03182647687
0.548559319869
1.02669591472
1.0230829997
0.610068658108
0.999102028084
1.00125613679
1.0020072925
1.00065400234
1.00101258898
0.999285380046
0.998409795217
1.0040758507
1.00465807914
1.00234457267
1.00332754179
0.998547161798
0.555967488022
1.03088507073
1.02766908728
0.635265441673
0.968037734119
0.970293534257
0.919058213976
0.923080206755
0.535558268388
0.949169536692
0.951486808988
0.592989744065
0.570218029174
0.940925376197
0.945457454805
0.96082657219
0.963819590052
0.627088560274
1.02079922814
1.03385944467
1.03427613981
1.03238144981
1.03339273058
1.01968072722
1.03368835485
1.03515169105
1.0345615376
1.03563234409
1.03539705808
1.03276195232
0.541754805086
0.926912358979
0.931037420844
1.02573325563
1.0352761109
1.03562179793
1.03451859179
1.03506598635
1.0245440832
0.601048554708
0.954543075967
0.957845495611
0.934267462548
0.937366317579
0.563125721783
1.02983936642
1.03573272365
1.0356992643
1.0357164815
1.03572619414
1.02875854893
1
1
1
1
1
1
1
1
1.00000000001
0.99999999989
0.999999991139
0.999999995168
1.00000007418
1.00001422208
1.00001122273
1.00000241311
1.00000404487
0.999999997606
1.00001006944
1.00001286851
1.00000016125
0.521798964253
0.440019516072
1.00001661994
0.435649517129
0.379692753984
0.999964527701
0.999734873006
0.999658155153
1.00001891951
0.999188739569
0.99901154951
1.00000200687
0.480201370645
0.997769501694
0.998122889503
0.997794289084
0.99773043566
0.475018127527
1.00001882373
0.999445743895
0.999340655695
0.407070462283
0.998412328377
0.997864539873
0.999791494546
0.998591936467
0.404174371017
0.999986565646
0.998759297413
0.998539938905
0.504336587181
1.03764616961
1.03539657298
1.0438361421
1.04281469602
0.454902240954
0.423313825408
1.04470416722
1.04411221483
1.04311243256
1.04368414864
0.392754087946
1.040292665
1.03844536381
0.498684745364
0.99787104705
1.00712053079
1.00805653547
1.00514715778
1.0060093921
0.997952400945
0.997751892395
1.01218657049
1.01292138065
1.00981644166
1.01098671811
0.997734261833
0.459505184696
1.04246512225
1.04086330793
1.04465235212
1.04482159695
0.419454485433
0.998153060728
1.01679805893
1.0188086172
1.01478069695
1.01603554995
0.99806996539
0.999473627861
1.02572519585
1.02985627528
1.02092206317
1.02407553915
0.999098859921
0.396499186147
1.04396363271
1.04456440887
0.515069835164
0.910522676506
0.914795358896
0.848407060967
0.852591280096
0.443997239918
0.431198128538
0.839108010597
0.843779993701
0.775380329261
0.780087794034
0.383471445249
0.884890496349
0.889239022119
0.485736893942
0.469341161382
0.876138731156
0.880776328797
0.811255368239
0.816275368218
0.41118169422
0.40136148245
0.803262050013
0.807241620349
0.902546385451
0.906384000564
0.509284711187
1.03696908079
1.03309414701
1.0321115809
1.0341421459
1.03368547272
1.03621770921
1.0435523543
1.01988833697
1.01876762106
1.02359826838
1.02137956099
1.04338221138
0.449112457181
0.857455194303
0.862639408911
0.830330758917
0.834828538622
0.427270283666
1.04443365117
1.01404760001
1.01314112075
1.01734796633
1.01526662495
1.04421016297
1.04337014454
0.992577507332
0.990730716952
0.996039052008
0.994697244865
1.04348919886
0.387737255281
0.785482741287
0.791332649386
1.03973203148
1.03008988151
1.02870206568
1.03146577365
1.03067453447
1.03913515659
0.492182717597
0.893736160418
0.89844044011
0.867051556728
0.871397030274
0.463844936162
1.04207885105
1.02595366874
1.02451287714
1.02810478954
1.02663675448
1.04165030191
1.04483113152
1.00741961126
1.00388590357
1.01111941614
1.00884064394
1.04483215955
0.415784701158
0.821460228577
0.825833253106
0.795687436824
0.79916402993
0.398799243905
1.04412327511
0.998618307937
0.997070716113
1.00244181772
1.00138242135
1.04442809488
1.01665450767
1.01670808334
1.02893190329
1.02706584053
1.01683213482
1.01712870499
1.0178748631
1.01821958453
1.02226378334
1
1
1
1
1
1
1
1
1
1
1.00000000002
1.00000000005
0.999999999517
0.999999998853
0.999999977032
0.999999942706
1.00000037234
0.999950171546
1.00001939876
1.0000267246
1.00000112309
0.376631179451
0.332362025285
0.999855023064
0.998335878255
0.99820700016
0.999915055179
0.351491109945
1.00080082387
1.00022155334
1.00163213789
1.00104222517
0.348624539059
0.999883335113
0.998052724051
0.997736628981
0.365704432011
1.04264999963
1.04301940501
1.03947771111
1.0403672779
0.338372452908
1.04184676816
1.04243658748
0.362605402612
1.00059736724
1.03412969701
1.03650673572
1.0305332084
1.03375377347
1.0003317498
1.00148979528
1.03965093493
1.04130210007
1.03716915641
1.03907126446
1.00125865151
0.341102909057
1.04069466713
1.04169573472
0.373160337915
0.765928759034
0.770890452649
0.70254509324
0.706273978156
0.334475974189
0.735522217706
0.741098279415
0.355351622952
0.34630554194
0.726644806143
0.730750375152
0.755978357835
0.760924893807
0.369317863359
1.04271883088
0.985151076336
0.982903282906
0.989056790303
0.987034713946
1.04282076752
1.039830165
0.957556620367
0.955501200195
0.961922100231
0.959506190018
1.04002600499
0.336233385526
0.709620046381
0.713556068765
1.04207595716
0.976248973268
0.973622396837
0.980777205464
0.978552399356
1.04227016827
0.359313956216
0.746417103879
0.751216852077
0.718158530653
0.722712463303
0.343929193064
1.04116949649
0.966757752973
0.964336836541
0.971263755795
0.968827225993
1.04139934596
1.01999648231
1.01950845728
1.03844727745
1.04023831929
1.02095425938
1.02044674161
1.02186640944
1.02138814788
1.04076001093
1.03782187052
1.01909532292
1.01869803929
1.01845012263
1.01795615502
1.03579608423
1.03502190445
1.01773053076
1.01727965123
1.01706560359
1.01684175401
1.03270557964
1.03146596829
1.01670176923
1.0166558151
1
1
1
1
1
1
1
1
1
1
1
1
1.00000000001
1.0000000001
0.999999996968
0.99999986705
1.00000168785
0.99978431928
1.00003287924
1.0000459244
1.0000024255
0.329393102021
0.300412336342
0.999650981635
0.997594970644
0.997416924297
0.999756968878
0.31284690828
1.00296633056
1.00191224497
1.00436926739
1.00317534746
0.311001064674
0.999694598143
0.997166213741
0.996924385672
0.321472874541
1.03744692223
1.03905783375
1.02949500503
1.03168680685
0.304594074275
1.03492185547
1.03686216799
0.319395884628
1.00262483404
1.04384294014
1.04513320589
1.0418160054
1.04334998346
1.00212228101
1.0041101896
1.04688582638
1.04780420801
1.04551061133
1.04657042922
1.00348071155
0.306085122741
1.03216055729
1.03451560209
0.326204260029
0.692899645005
0.697846276296
0.640711854751
0.644191916326
0.302028016001
0.667517029268
0.671438193146
0.314828771806
0.309336840716
0.660605177471
0.663930877723
0.684352750289
0.68838921461
0.323535124033
1.03801147639
0.947710761554
0.945173619842
0.952989394122
0.95033193788
1.03878528876
1.02996309255
0.917756785979
0.915246693976
0.922440537894
0.920131163137
1.03113025238
0.303332809114
0.647290537164
0.650399741463
1.0355787164
0.936850033928
0.934212742787
0.942533009843
0.939694366407
1.03623805508
0.317042241571
0.67579782541
0.680264089458
0.653793266747
0.657281610886
0.307721857223
1.03284283899
0.927323146397
0.924896664526
0.931807543793
0.929596999017
1.03395018568
1.04236698769
1.02285780855
1.02233572813
1.02387494701
1.02335557437
1.04285966699
1.04430815197
1.02498566929
1.02439957611
1.02609560512
1.02553694767
1.04472689323
1.04591673255
1.0271055538
1.0266202681
1.02803630625
1.02756012629
1.04623457171
1.04725160211
1.0290912081
1.02854531147
1.03011480028
1.02958980474
1.04750764477
1
1
1
1
1
1
1
1
1.00000000001
1.0000000002
0.999999992355
0.999999751346
1.00000401091
0.9995636786
1.00005458889
1.00006330444
1.00000504431
0.298576526187
0.28040777019
0.999345927563
0.996703357783
0.996461266231
0.999512262786
0.289235921021
1.00622126402
1.00473406051
1.00868503077
1.00708009684
0.287719294306
0.999406884395
0.996229344781
0.996029016107
0.294366635291
1.02622784925
1.02858467665
1.01399754635
1.01751272288
0.283215674275
1.02210807193
1.02482715867
0.293408858576
1.005775426
1.04894595158
1.04947326471
1.04809857062
1.0488328753
1.00548780224
1.00790604987
1.049946091
1.05011735789
1.04960631014
1.04990457061
1.0074194812
0.284338874748
1.01854462404
1.02154135798
0.296858893634
0.63323767409
0.636940368917
0.591483585645
0.594156901858
0.281319358407
0.61453486361
0.618235034368
0.290811597075
0.286467976011
0.608035923028
0.611004025833
0.627175929816
0.629889344963
0.295413406776
1.02683464358
0.907388267422
0.905190317054
0.912606016523
0.909922209019
1.02730533609
1.01493770282
0.877849190437
0.875439821275
0.882821088708
0.8802665191
1.01604649148
0.282193763513
0.596778639495
0.599678941659
1.02303841947
0.897900158585
0.895033783846
0.903026956877
0.900643415486
1.02394166531
0.292257697357
0.621740840707
0.624657304679
0.60268016601
0.605410730444
0.285388420761
1.01904270226
0.88768695061
0.885394128561
0.89227809102
0.88991041044
1.02041407512
1.04835181888
1.03112563785
1.03060711489
1.03209021616
1.03160194262
1.04858609814
1.04907433676
1.03304430679
1.03254743829
1.03402856086
1.03352828158
1.04927843462
1.04974252169
1.0349639789
1.03448794507
1.0358421526
1.03539485274
1.04981728478
1.04999938628
1.03672159509
1.03627596155
1.03758540788
1.03717754879
1.05007507264
1
1
1
1
1
1
1
1.00000000002
1.00000000032
0.99999998463
0.999999637331
1.00000760099
0.999218794406
1.00007185422
1.00008238365
1.00000968885
0.279309859043
0.266563707403
0.998931005263
0.995805031001
0.995658225755
0.999150603146
0.272571788968
1.0109079568
1.00904540286
1.01388317274
1.01196494034
0.271787939075
0.999009767454
0.995456356752
0.99535593273
0.276558461731
1.0095137163
1.01291665121
0.996114711459
0.998990946807
0.269124975372
1.00482095376
1.00885809804
0.275645058121
1.01032551616
1.04994851926
1.04969757118
1.05011906548
1.04997149587
1.00996140685
1.01335412302
1.04887152543
1.04819817698
1.04952730585
1.04908271194
1.01236907057
0.269844909068
1.00020309363
1.00390192521
0.278222108755
0.585421843551
0.588469031706
0.550940294728
0.553494747825
0.267462004906
0.56960775842
0.572329066094
0.273490995155
0.271169073646
0.565167344338
0.56718384148
0.580544120459
0.582778562682
0.277303240209
1.01041236436
0.867789655
0.865638713302
0.87279790519
0.870183390434
1.0120933027
0.996739313114
0.839380751173
0.836866636082
0.844287871371
0.841938781238
0.997783532828
0.268333158876
0.556035798603
0.558423873312
1.00594818155
0.858216804108
0.855666856999
0.863448830898
0.860929404488
1.00714499402
0.274604482923
0.575343017814
0.578097648749
0.560789040384
0.562978274313
0.270503051448
1.00136386187
0.849010332047
0.846729485742
0.853307699949
0.85128417362
1.00316615641
1.05011212489
1.03843596004
1.03805777966
1.03931111021
1.0389303574
1.05003766775
1.04987254099
1.03991338577
1.03964598096
1.04064457278
1.04022123259
1.0497851598
1.04944070776
1.04136158803
1.04100860603
1.04198818548
1.04167103621
1.0492670437
1.04874616946
1.04262349004
1.04225732558
1.04313419778
1.04286281758
1.04843093607
1
1
1
1
1
1
1
1.00000000004
1.00000000059
0.999999968264
0.999999493637
1.00001182294
0.998770747859
0.998243069521
1.00008956609
1.00009280211
1.00001620075
0.265756193145
0.255646696452
0.998413557491
0.254884909836
0.245269853788
0.99783066942
0.99522892826
0.995155229258
0.998684897496
0.99508942725
0.995130648659
0.998133896767
0.260430832147
1.01648122296
1.01425790258
1.01934181038
1.01718619289
0.259476385699
0.998510295074
0.995082032031
0.99507446508
0.250157418243
1.02207101607
1.02001671602
1.02498058793
1.02317748923
0.249511239034
0.997948269132
0.995233088613
0.995348015394
0.264047810542
0.992150167354
0.995090992863
0.978326630317
0.981719837197
0.257079317388
0.252255707697
0.972819760242
0.977039455952
0.956922903431
0.960752335258
0.246534094505
0.987451441109
0.991124699941
0.263372192938
1.04799008231
1.04700217486
1.01501392541
1.01858185063
1.04396385514
1.04300219989
0.257531485558
0.982926655418
0.986284393587
0.968036170417
0.971542241049
0.25160415603
1.02143153187
1.04089526486
1.03947061777
1.04250818297
1.04137234361
1.02075117615
1.02418858967
1.03709131512
1.0357900236
1.03904749327
1.03760831437
1.02383013229
0.247165381079
0.962164485708
0.96666180542
0.26511760611
0.546481727932
0.548559457354
0.516587181187
0.518429753274
0.256203550548
0.254000967821
0.511797146467
0.514365048676
0.48543296281
0.486668011108
0.245495569795
0.532035458645
0.534825598635
0.261459825465
0.258674083538
0.527445863739
0.529566115504
0.50039775637
0.502063631487
0.250638516767
0.248751891906
0.496125674571
0.498386702757
0.542724512632
0.544641829828
0.264588370821
0.834451608621
0.832239178884
0.994081655817
0.979446706692
0.802097678271
0.80004953406
0.806084957998
0.804028912028
0.980577185069
0.256665501611
0.520087475071
0.521809258122
0.507054786996
0.509281043858
0.253076728709
0.974183645982
0.79223987372
0.789794425679
0.797667238443
0.794947243178
0.975643627307
0.958117995819
0.766082433961
0.764387044255
0.770026322437
0.76799159456
0.959431384831
0.245810223755
0.488147525128
0.48984880718
0.262487563936
0.537757279145
0.540472770653
0.523674342947
0.525535964808
0.258039489451
0.969249078695
0.784047791556
0.78209813817
0.78768281473
0.785840848921
0.970384486606
0.251098573127
0.503607844812
0.505187824573
0.491709580129
0.493827888053
0.247959195219
0.963631895262
0.774607094885
0.77219185043
0.779800614705
0.777226756565
0.965158367541
0.993116713267
0.830198495822
0.828088613666
1.01573416341
1.04683380113
1.04580460755
0.825681531477
0.822908559662
0.989956382567
0.988698562075
0.819972466664
0.81717343599
1.04539397047
1.04429679346
1.01797299498
0.81469140547
0.812518478382
0.985172798917
0.984076220495
0.810439508464
0.808294629115
1.0474816187
1.04365336727
1.04344041726
1.04403391749
1.04386020103
1.0472016429
1.04636512891
1.04448550201
1.04436862388
1.04477573678
1.04464702835
1.04602037922
1.04499655852
1.04503354488
1.04492713536
1.04533981088
1.04520546455
1.04479932862
1.04361333313
1.0455657096
1.04547007162
1.04580578077
1.04568825568
1.04325748893
1.0422306781
1.04598391698
1.04590398534
1.04621347177
1.04613126283
1.04175710804
1.04061405398
1.04638833033
1.04630176879
1.04652478909
1.04648266003
1.04011017001
1.038675771
1.04669920781
1.04662004644
1.04681652105
1.04677461311
1.03833784425
1.03673935649
1.04687305401
1.04684911801
1.04690202746
1.04688877509
1.03609026118
1
1
1
1
1
1
0.999999999999
1.00000000008
1.0000000002
1.00000000084
1.00000000106
0.999999948422
0.999999904377
0.999999345776
0.999999368893
1.00001954979
1.00003127991
0.997644095276
1.0000921458
1.00008898831
1.00002633679
1.00008218753
1.00005938282
1.00003899079
0.244976394868
0.236580429385
0.997236716241
0.995511622527
0.995673512835
0.997542020822
0.241016679803
1.02717601644
1.02531694489
1.02987848833
1.02818214889
0.240567849792
0.997339813688
0.995899260329
0.996183601722
0.243712659962
0.951663515331
0.955728130451
0.934243558126
0.938956386564
0.238542932506
0.945831929609
0.950070120427
0.242912231086
1.02663046265
1.0331915225
1.03114851107
1.03524770843
1.03374572619
1.02601068934
1.02942733782
1.02822594707
1.02624646182
1.03061513325
1.0288278439
1.02856129636
0.239137852904
0.940469777489
0.944642445309
0.244777527332
0.48286121669
0.484205284673
0.458973369852
0.460738996166
0.237195986227
0.472117727684
0.473546883686
0.241534919736
0.240117624709
0.469336776276
0.470779379212
0.479225467458
0.481158863375
0.244368071512
0.953127706808
0.758866263552
0.756524085992
0.762736554444
0.760969484137
0.95450718785
0.93590031854
0.733678766171
0.731411899639
0.738165035226
0.735975033227
0.937486531781
0.237888899617
0.462582071693
0.464358850797
0.947119867087
0.74970715884
0.747942045327
0.754041160742
0.751744929238
0.94855765874
0.242169119447
0.475235568771
0.477146070429
0.466098449264
0.467746761463
0.23965830638
0.94194758724
0.742470410066
0.740338039578
0.746305344111
0.744516117398
0.943370062101
1.03488699374
1.04690161081
1.0468998141
1.04693223932
1.04692036498
1.03432408519
1.03276942104
1.04692328067
1.04693597085
1.04680219793
1.04688453976
1.03169463914
1.03026787997
1.04671066657
1.04675741656
1.04661657179
1.04667333784
1.02953287874
1.02784259466
1.04650176205
1.0465480825
1.04636054896
1.04646210131
1.02720028885
1
1
1
1
1
1
1
1
1
0.999999999999
0.999999999999
1
1.00000000044
1.00000000078
0.999999865723
0.999999689319
1.00004371561
0.997047181879
1.00001652435
0.999995030626
1.00005303851
0.235923817312
0.230496849351
0.996638126594
0.996467979461
0.996868242592
0.996928544164
0.233679744463
1.03211849236
1.03023187903
1.03427164339
1.03274155878
0.233090802912
0.996760352326
0.997173696309
0.997583047035
0.234979697375
0.928462176438
0.932531037583
0.912736636217
0.916010154017
0.231285012804
0.923424599964
0.927411634462
0.234652012464
1.03175311865
1.02287552477
1.02122448264
1.02571553142
1.02389681491
1.03082478845
1.03383457087
1.01727156637
1.01565629656
1.02012633707
1.01793615944
1.03334746546
0.231651889716
0.917070428279
0.921719994671
0.235594345864
0.455891346902
0.457299626929
0.438805302914
0.440077933422
0.230700769252
0.448702533647
0.450131951462
0.234060188727
0.232389539675
0.445395727726
0.447040677458
0.453574895214
0.454638951375
0.2352309627
0.929596228845
0.725486188295
0.724021801827
0.729177923168
0.727234667824
0.931010131155
0.914039778768
0.705612487013
0.703761312008
0.708251020465
0.707108534587
0.915129878631
0.23094497947
0.44117699375
0.442066867274
0.924941360673
0.719300773064
0.717270917672
0.722641441302
0.721093650465
0.926280533292
0.234375492673
0.451406395244
0.452533324569
0.442955571797
0.443980610239
0.231858629337
0.918390996814
0.710877837058
0.709422379398
0.715053527187
0.71284614672
0.920010990461
1.02490826087
1.04614057061
1.046253238
1.0459572149
1.04604771698
1.02437344423
1.02228493877
1.04573268871
1.04582135926
1.04542950517
1.04557992702
1.02164358693
1.01951110269
1.045106559
1.04529503938
1.04476700105
1.04497346436
1.01892854973
1.01682030594
1.04434703966
1.04455330145
1.04404014006
1.04420235069
1.01624576764
1
1
1
1
1
1
1
1
1
1
1
1
1
0.999999999999
1
1.00000000086
0.999999999486
0.999999740364
1.00000031091
1.00006616103
0.99650946071
0.999960633912
0.999918513975
1.00007310136
0.230219752303
0.22443831007
0.996154532302
0.997952499327
0.99843923098
0.996351894602
0.227028551563
1.03598450578
1.03468809876
1.03751345214
1.03622915779
0.226790750053
0.996279168383
0.998822087397
0.999450650782
0.228756718408
0.90626029154
0.911102775665
0.889082739886
0.893032595732
0.226042980522
0.900692991611
0.904713294002
0.228071112705
1.0355256448
1.01149393676
1.00907926425
1.01481860727
1.01262992931
1.03504904886
1.03706217986
1.0049932444
1.00252594666
1.00860413645
1.00589750643
1.03669929865
0.226288613622
0.894662534209
0.899294341933
0.229842871974
0.435907326494
0.43735618479
0.419524604027
0.420577057061
0.224945161414
0.428543417717
0.429573819908
0.227380516808
0.226667958025
0.426303692123
0.427440222314
0.433097805064
0.434468715567
0.22926748931
0.907813531897
0.697449449328
0.695548063098
0.701616191861
0.699484189671
0.909496387332
0.890277168277
0.676941017703
0.675571732754
0.680039123542
0.678419253703
0.891601684513
0.225509285758
0.421722758862
0.422907094161
0.902015134829
0.690715081203
0.689213051771
0.693789561078
0.692209795377
0.90335591011
0.227574345073
0.430634681104
0.431785189286
0.424030226901
0.425123695767
0.226520204597
0.896262665459
0.683807191773
0.681865958698
0.687553223565
0.685742642351
0.89787538744
1.01427600406
1.04365117564
1.04382923678
1.04330045238
1.04344934406
1.01312183974
1.01096297353
1.04273410783
1.04294667385
1.04223594056
1.04251334605
1.00981578959
1.00776534883
1.04161652612
1.04198196439
1.04112395212
1.04137830201
1.00648725376
1.00430204946
1.04058715963
1.04090400732
1.04003270656
1.04033950649
1.00330853747
1
1
1
1
1
1
1
1
1
1
1
1
1
1
1
1
1
1
1
1
1
1
1
1
1
1
1
1
1
1
1
1
1
1
1
1
1
1
1
1
1
1
1
1
1
1
1
1
1
1
1
1
1
1
1
1
1
1
1
1
1
1
1
1
1
1
1
1
1
1
1
1
1
1
1
1
1
1
1
1
1
1
1
1
1
1
1
1
1
1
1
1
1
1
1
1
1
1
1
1
1
1
1
1
1
1
1
1
1
1
1
1
1
1
1
1
1
1
1
1
1
1
1
1
1
1
1
1
1
1
1
1
1
1
1
1
1
1
1
1
1
1
1
1
1
1
1
1
1
1
1
1
1
1
1
1
1
1
1
1
1
1
1
1
1
1
1
1
1
1
1
1
1
0.999999999998
1.00000000002
1.00000000135
0.999999997785
0.999999678513
1.00000137396
1.00008073851
0.996062789644
0.999863394286
0.999835617489
1.0000857475
0.224179917245
0.219369777552
0.99569606007
0.999817308903
1.00079989684
0.995932216626
0.222521517973
1.03890075985
1.03788587903
1.04030035279
1.0391283728
0.222134094601
0.995810506028
1.00143482878
1.00189884457
0.223499696415
0.883550258472
0.887827241271
0.865178578331
0.871066790339
0.220798941841
0.87776405046
0.88193432391
0.223263339524
1.03861673009
0.998107050768
0.996082636946
1.00165179786
0.999224277331
1.03839425419
1.04000925846
0.99285476569
0.990143217916
0.995621609642
0.993395427784
1.03958209348
0.221230267023
0.872701000274
0.876639016091
0.224017829416
0.417573941266
0.418535876223
0.402012348068
0.403494508001
0.219956365138
0.411621694355
0.41252727939
0.222919721089
0.221765359064
0.409935828089
0.410720141221
0.415392715715
0.416513030184
0.223775857514
0.885076594582
0.671062401011
0.6692821435
0.674193330688
0.67272229979
0.886574596759
0.655506969796
0.653179784379
0.869150667733
0.220325831064
0.405110826614
0.406691471101
0.878972741011
0.664059980185
0.662742391656
0.667412391577
0.665622315272
0.88038755668
0.223131214347
0.41320874441
0.414135093794
0.408063484901
0.409125100778
0.221548934603
0.874102391197
0.659101159002
0.65752951694
0.66158806044
0.66036960738
0.875397053565
0.867161067456
0.650758099551
0.64847575511
1
1
1
1.00111300388
1.03931847634
1.03966422498
1.03869322214
1.03900414556
0.999704258895
1
1
1
1
1
1
1
1
1
1
1
1
0.99741335586
1.03806125255
1.03840657335
1
1
1
1
1
1
1
1
1
1
1
1
1
1
1
1
1
1
1.03738316348
1.03768425413
0.996767882432
1
1
1
1
1
1
1
1
1
1
1
1
1
1
1
1
1
1
1
1
1
1
1
1
1
1
1
1
1
1
1
1
1
1
1
1
1
1
1
1
1
1
0.99493501281
1.03664591462
1.03712880539
1
1
1
1
1
1
1
1
1
1
1
1
1
1
1
1.03580739298
1.03619385832
0.994048023656
0.992216546138
1.0351195023
1.03546696165
1.03433912461
1.03474751517
0.991323508868
1
1
1
1
1
0.999999999997
1.00000000004
1.00000000151
0.999999995612
0.999999602985
1.00000229081
1.00009457532
0.995596288715
0.999767765256
0.99972227299
1.00010128057
0.218824018316
0.214104229245
0.995387272322
0.21663420529
1.04094518991
1.04045686145
1.04131918598
1.04105283944
0.216526891234
0.995432185297
1.00401932479
1.0047324901
0.217455322349
0.858784888759
0.863435149778
0.840922035626
0.846905173082
0.215199904573
0.852900259904
0.857435347232
0.217235618297
1.04124240259
0.979642944722
0.976225618284
0.215583674334
0.848657738572
0.851824067545
0.218313271352
0.399603858021
0.400749809275
0.386280581536
0.387300684869
0.214365386079
0.394275225043
0.394822750396
0.216806002406
0.216356159159
0.393150224759
0.393790728314
0.397682099536
0.398491644882
0.217819561943
0.84262917988
0.624775536405
0.623078332727
0.214768896263
0.38842357136
0.389665799107
0.217019707205
0.395573055577
0.396580870011
0.390837621433
0.39206105431
0.216001726502
0.982650567855
0.98035907259
1.04112715838
0.849679488489
0.632085504343
0.630450790056
0.63485706612
0.633548768286
0.850818695341
0.628627152852
0.626658602537
0.844735853451
1.0023022935
1.00294939324
0.995504372854
0.989317261487
0.986678212515
1.04067350447
0.860204850009
0.643119608673
0.641587924756
0.646514531637
0.644750169227
0.861780789082
1.04080380574
0.985815548019
0.983272190847
0.640162000264
0.638717327623
0.855766805977
0.854211552136
0.637394965401
0.636132448495
1
1
1
1
1
1
1
1
1
1
1
1
1
1
1
1
1
1
1
1
1
1
1
1
1
1
1
1
1
1
1
1
1
1
1
1
1
1
1
1
1
1
1
1
1
1
1
1
1
1
1
1
1
1
1
1
1
1
1
1
1
1
1
1
1
1
1
1
1
1
1
1
1
1
1
1
1
1
1
1
1
1
1
1
1
1
1
1
1
1
0.988384009945
1.03354894652
1.03405181108
1.03278144619
1.03317495823
0.987517171076
0.984910905208
1.03184811778
1.03220773218
1.03111690007
1.03148349833
0.984048120788
0.982100940957
1.03038794463
1.03075916662
1.02971581523
1.03001704898
0.981266438003
0.978507627489
1.02876678564
1.02946768614
1.02790772316
1.02834481786
0.977287119794
1
1
1
1
1
0.999999999994
1.00000000005
1.00000000193
0.999999990472
0.999999985582
0.999999403938
0.999999315921
1.0000035337
1.00000519736
1.00010739807
1.00011927378
0.995331180413
0.995399962994
0.999633382012
0.999555997504
1.00011336497
0.999457719765
0.999384784916
1.00012356085
0.213788641756
0.209891351011
0.995283374455
0.209765336871
0.20694492435
0.995715729379
1.00534834671
1.00662877104
0.995306155685
1.00951384309
1.01227894487
0.995523931327
0.211405603127
1.04150138982
1.04137623713
1.04162661964
1.04154585795
0.21098180987
0.995287461425
1.00727175834
1.00752634226
0.208630330514
1.03852887094
1.04146632156
1.03750520432
1.03820927941
0.208346617009
0.99560988205
1.01320130017
1.01455473178
0.213148859282
0.835850560737
0.83956770964
0.818568285417
0.822056832094
0.210085193748
0.209394429619
0.814317052015
0.817508043275
0.796526735851
0.801099390133
0.20750059687
0.830327304615
0.834434401356
0.212805828743
1.04144403868
0.971955712338
0.969070850424
0.975319175341
0.973069199481
1.04141514834
1.04158522816
0.9643265149
0.961256636565
0.967829100792
0.96494091558
1.0415735028
0.210205335948
0.82316817349
0.828495446166
0.808838179361
0.812522466376
0.209271493423
1.03989478362
0.956910608608
0.954351463036
0.960501569819
0.957726145383
1.040358948
1.03779085608
0.949341469802
0.946855367153
0.953344825749
0.95053912895
1.03784786688
0.207753477626
0.802827985946
0.807379434238
0.213507607192
0.384521563835
0.385402849881
0.372179101039
0.372802729288
0.210010798347
0.209603461802
0.370844809745
0.371420632883
0.360497214005
0.361060764595
0.207106770231
0.378523216523
0.379616490307
0.211846555292
0.2106323532
0.376478086602
0.377593215116
0.366721264615
0.367682100577
0.208922126139
0.208169203881
0.365078450917
0.365881949221
0.382979942048
0.383608447546
0.213337673331
0.83701830954
0.619019446367
0.617640643188
0.62168093557
0.620352007946
0.838328021006
0.81966285199
0.60082006782
0.599686492481
0.603182026397
0.602070894037
0.820872621081
0.210048563986
0.373318748425
0.373992756334
0.369923152579
0.370376799563
0.209481018257
0.815415242328
0.59690067216
0.59589041261
0.598705115303
0.597821898686
0.816555280943
0.797820515694
0.58001933857
0.579290033512
0.583249120165
0.581327846289
0.799325035802
0.20728576047
0.361633966226
0.362445474423
0.831744808729
0.61285642673
0.611190213088
0.616164159343
0.61451611447
0.83315452006
0.212321473377
0.380820555252
0.382059481251
0.374563510144
0.375399921354
0.210379915199
0.82464076705
0.606070327858
0.604402171438
0.609482804931
0.607695216548
0.826345694205
0.80971830675
0.591914665636
0.590579519095
0.594689224561
0.593319280823
0.810913127874
0.209148146805
0.368650737986
0.369407369382
0.363384063662
0.364297500367
0.208021831328
0.80444553702
0.586012703593
0.584637571328
0.58903914347
0.587579951975
0.80582421294
1
1
1
1
1
1
1
1
1
1
1
1
1
1
1
1
1
1
1
1
1
1
1
1
1
1
1
1