/*--------------------------------*- C++ -*----------------------------------*\
  =========                 |
  \\      /  F ield         | OpenFOAM: The Open Source CFD Toolbox
   \\    /   O peration     | Website:  https://openfoam.org
    \\  /    A nd           | Version:  8
     \\/     M anipulation  |
\*---------------------------------------------------------------------------*/
FoamFile
{
    version     2.0;
    format      ascii;
    class       volScalarField;
    location    "1e-05";
    object      magGradrho;
}
// * * * * * * * * * * * * * * * * * * * * * * * * * * * * * * * * * * * * * //

dimensions      [1 -4 0 0 0 0 0];

internalField   nonuniform List<scalar> 
49758
(
2.82689223178e-05
7.21401899584e-05
0.000235433452895
0.000763184712754
0.00248687060938
0.00809329436575
0.0262896263288
0.0849759026456
0.273698696127
0.881861846252
2.73117153821
1.90528426353
6.84147477952
5.396991514
44.8797686595
10.0449932639
6229.07517373
5420.16328783
28.5137207676
22.0751052578
152.756737957
29.0476620831
32.8970277563
12.4833333957
35.1186357948
5165.48472552
83.5108600539
25.1577413285
48.222556831
26.6271557563
5253.51377309
44.6913768071
65.6286276669
74.7156981731
4465.26902512
110.903178507
164.557465292
17.6377461852
18.3726284363
5340.7121575
63.7524727584
41.0634960998
37.0060070122
110.547304228
44.5140998024
119.108922373
163.282820195
74.7999410152
4638.4194073
199.683776662
98.0778406424
173.870058426
54.5027650184
295.60876157
120.18271708
85.7916327079
42.2480315219
26.9006846736
144.550805361
91.2650219562
119.363442913
5319.47536517
22.3726025267
123.219718082
97.9632425803
102.354972379
88.5774864402
84.7767467455
48.2857664853
122.48691864
83.989309303
12.3241445292
100.381453341
4577.93575902
1278.85646578
1513.9147454
1731.48474292
1685.95051431
5401.0776458
1372.07334179
1242.40706292
5013.74354819
119.525731316
95.5904298525
43.4646044543
115.81587895
113.08179786
95.98279303
5295.60256216
1542.52252561
1481.76004925
36.7789763693
62.1253306877
84.3679195394
994.185866268
1079.92993062
4380.099656
376.413389145
228.93293381
70.8181792129
468.75690608
544.434014321
406.033813339
29.1534553912
158.46215093
170.425786442
130.163163512
143.88841299
22.4373608946
5370.49101081
1650.18065081
1612.75641261
17.1573002751
38.6759445085
54.1644999074
201.134886366
156.211571801
95.0147011414
153.435224525
191.223215719
157.214319366
4833.27247145
1115.80710931
1015.78452573
50.3649014181
109.962762876
206.194910637
135.362204884
37.367398877
139.082991057
201.70081746
78.9511430303
17.0691298155
326.690302692
205.59112909
377.726540598
1592.3117066
1573.96016611
5311.7351059
32.8793275072
101.007215808
117.390222597
54.1179972748
79.738771846
106.035525954
72.8912553099
17.8453214871
88.5230870079
64.1026497139
44.2638515638
23.4943110561
66.3953429479
67.1921136048
55.5372434519
0.000368159855989
0.000788591718958
0.00239445212724
0.00706160123455
0.0207939842151
0.0605478272027
0.173789038258
0.492114580049
1.36631934822
3.34615831659
5.77334959538
11.9291933039
36.6032847317
5.96815355132
13.7522944627
3.51940627934
5446.27225447
5404.20435907
19.3688248505
49.3414478265
28.8647850022
34.2075726787
5437.91247336
7.75074085002
31.3865399307
3.92426248491
4.45335350757
5430.89822135
25.8193698112
13.7576899603
4.9060373601
5434.99924083
30.7028317874
17.7265883348
52.5073346883
50.448621681
5429.87946645
40.0394437653
37.2786155115
5444.16090235
9.67207486977
4.03404659251
6.80885673556
17.0355395904
6.0992417458
26.2615251297
3.19966680664
13.3460873756
13.2731139556
12.5681912574
14.2471288844
2.75305610098
5427.57037391
49.9311055957
44.5068031652
5448.28910226
1802.01816829
1772.97640637
2176.94542647
2150.33251765
5414.2523091
1961.39598254
1939.06328614
5451.17054224
5438.07396648
2026.3378227
1989.57309158
1843.42924954
1822.23085315
5434.85661989
26.0186987645
199.711068554
210.732876943
179.934128449
189.683903334
18.4427152297
50.4975420582
300.658529317
308.588663199
284.684288946
294.008215439
50.9190225862
5427.37014114
2125.10256769
2096.40712893
37.7433656185
235.512194597
241.673221219
220.182084731
230.231232702
38.0449279464
5454.30763942
1909.05003034
1872.54478801
2067.33661552
2048.19406338
5435.24965406
49.1574139627
269.126948825
275.113573121
250.583159989
263.111629702
47.1009858204
0.00264466157695
0.00473236180854
0.0134694095282
0.0362720694065
0.096597138778
0.251208922006
0.633845691875
1.52341090004
2.70417830354
2.70041580299
1.0631167976
5.73349902141
6.7198474749
9.66327435052
1.15209703949
14.2369522252
9.00010836119
8.24225911607
3.58129018543
0.824492667702
4.57205802521
5399.8431444
4992.07191527
1.7899950867
4958.89640055
4438.50852105
2.22401137058
1.34908156058
2.31223872394
8.09901230716
5.35586121497
5.75078050679
1.91647350566
5263.61064321
7.32200777851
4.93539285543
10.2332000256
7.64273823091
5225.83123678
2.1210573976
3.21214522918
4.16251103212
4719.2994732
9.38443989736
9.8158884745
7.33570471407
8.43248140511
4696.42367867
2.16601930888
5.12796295762
4.22080630897
5341.04778592
55.2729982846
54.1106286796
69.0280745993
66.7303972032
5093.76199124
4863.36800084
71.9762757324
68.9338694035
104.085960663
84.6757628578
4583.89195803
60.7056389235
55.002647583
5329.4863511
6.9096454315
14.2339848508
15.4429378468
14.4129113529
13.9600972111
5.51430283897
9.15627635992
17.8710989391
17.6739259058
16.2958829101
17.098196686
8.46102105355
5119.84359911
67.5915455959
61.9900754596
76.7134288148
73.3057259832
4831.14615222
9.16071397068
15.9955093445
15.728900439
16.819775088
16.0198270661
10.1008805892
6.53293257323
26.344607726
32.5921929335
15.8369380699
24.0740509196
6.75304441192
4619.52002271
81.2832654438
76.7932161162
5390.60385857
2239.2709417
2210.54757235
2643.26597316
2619.94522919
5028.7847604
4917.05993038
2695.8836687
2670.52386949
2980.90445156
2971.5127591
4483.94759731
2423.14612778
2396.24334963
5296.23721356
5194.59793819
2484.16324498
2450.17047265
2850.46416511
2823.42133226
4755.03773256
4677.04422498
2890.48836245
2869.10432707
2287.24516592
2262.3169641
5369.33555232
55.5650496159
336.223889239
343.70305582
319.52188392
328.314791281
55.8429606155
68.4140735018
487.166971432
496.916607522
457.295388473
472.592681983
69.225158409
5065.59497427
2594.81803434
2560.4153797
2747.72160353
2721.48520188
4888.3822578
69.8307339794
536.61705483
550.137615821
509.631830437
525.294964906
70.2519366992
98.8281858165
727.970166229
745.622711124
676.15790334
703.6427687
91.6618375167
4538.69396174
2963.5182991
2940.15455837
58.7273539975
378.748134089
392.427838459
351.331325428
364.276693686
57.2807907047
5316.09476126
2356.68785126
2317.02234107
2534.26170525
2512.00059195
5157.55814585
66.041142277
435.480407149
447.399563102
404.670757711
419.453623414
64.3965905646
74.938344466
592.595403442
609.445980137
565.159868712
577.607275907
74.1156185759
4797.24975938
2793.67588425
2770.03344773
2921.2368876
2907.37642467
4652.62833729
80.8213503527
644.125188763
658.487140411
619.921415741
630.359182641
77.9632942674
19.2203929097
18.0505107378
30.6170405089
28.6018708213
16.9256798403
16.6058311204
15.2857347255
14.1295807878
22.4155442082
0.0131362991959
0.0195956586805
0.0527284807054
0.12890563474
0.30915265415
0.709811930181
1.49119512158
1.6289673996
2.05723173982
0.949549690242
1.47922040431
0.361901845403
0.527544827836
1.82451193231
3.43878515124
3.15315622772
1.5924701523
2.29661661548
0.545566854496
1.25483707831
1.15796278959
4407.4280923
4010.30409076
3.81021705548
4.14650171463
5.48761074587
3.03278502404
4183.4838078
10.6837260091
8.07724228542
7.15087992962
8.59785054951
4160.37653484
3.42861209461
5.56354996386
4.18517206063
4304.98580839
122.471405944
109.281493129
181.771259781
167.429314071
4080.34987421
141.735021118
127.259492397
4270.10807682
10.5511875465
39.1516288857
38.3067452772
35.4258699709
39.5009292924
10.0904691847
7.39489893052
42.469881601
43.6931700235
39.3873054504
41.3893152151
8.4372348139
4103.33854057
162.047983703
147.374421944
4372.97585437
3004.44320222
2992.09511684
3183.23675246
3173.6675951
4028.32927534
3102.75906893
3090.09914863
4215.2846383
4141.57828546
3123.54066311
3113.03846998
3034.49037198
3019.15122208
4337.86524716
119.055331072
797.804876552
815.642676952
761.033704332
778.924908775
114.168648973
176.665174565
1022.0469051
1038.96914831
989.822303274
1006.77437274
172.526565517
4051.64131834
3167.57602078
3163.4003217
136.712012135
878.292354707
899.417450896
834.872809481
855.037048393
131.339747559
4243.47105609
3068.4147872
3049.49426639
3154.65720778
3136.73587366
4124.65210685
157.386526449
950.942268732
971.303547744
916.703660438
933.742328339
152.67037027
18.2168009427
17.5478782757
40.2589289238
42.9179407652
19.4622284784
19.3898048627
20.2317731653
20.3604132605
43.4321570918
39.7137966927
18.1857770336
18.8302395715
20.1101274528
20.1023450321
38.3094553805
38.7862575255
22.7790818369
22.8028440683
24.8310810197
23.3761818275
38.7188267587
37.4437557653
22.6940631835
20.8250064775
0.0505675622279
0.0617019854373
0.156198825559
0.157622976709
0.379803597142
0.348236721477
0.750595319822
0.745735011132
1.25493634514
1.37793392972
1.33569356892
0.7033312078
0.223326258234
1.08341185596
2.10848926194
1.30359069609
0.353620374029
3.04837932483
1.64373706237
1.28207974162
0.464662373017
3987.17869136
3640.82766497
2.69827527289
2.86672770364
2.85866670269
2.85548897042
3800.64460724
8.14934317916
6.78382890596
8.54693455858
8.46373145577
3776.72966887
2.54955389871
3.36069358251
3.37606932096
3909.34710663
206.94340957
188.913124104
273.668314323
256.919437196
3703.4745987
230.824462688
212.510553944
3882.71359322
7.55982952665
48.736098796
50.3707708864
44.6056756692
48.0079318358
7.08479910869
8.57002953709
53.8151369406
55.1236223231
50.8850077681
52.8724714167
8.72211842073
3720.44212313
250.991350596
235.824180081
3962.61762824
3215.46006003
3199.95286592
3302.810611
3298.14370893
3664.76236709
3259.04699842
3252.36215369
3826.45174398
3756.47473758
3271.41475669
3265.40780694
3229.46777658
3223.2316673
3937.81715172
201.682816963
1102.10148035
1119.44303795
1061.80357404
1084.27324567
195.929902507
267.840351393
1307.48398708
1326.19398703
1275.92877156
1291.4659068
262.69750976
3685.48450211
3294.00414937
3290.26293452
225.438591458
1177.56119226
1195.72602536
1137.0591953
1157.17756637
218.940511423
3854.57332411
3244.96594708
3236.2393574
3284.00794215
3277.62034029
3737.92158112
245.731289789
1243.86865808
1259.73872451
1212.37994983
1228.18250536
240.824313374
45.8644717475
20.5170101861
20.3488109465
21.8438964542
21.4161654333
47.1985750011
49.668117408
22.398201074
21.9047127092
22.4250749882
22.1542810549
50.0146314933
51.5857297789
22.6571119006
22.2989667521
23.0830420801
22.6923715105
52.0357025657
54.4947916135
23.0640310026
22.9898502296
23.0380158587
23.2197113057
54.9537674048
0.159519748181
0.416396788396
0.328954023177
0.756537737076
1.14270646868
1.13336805141
0.574955099645
0.1676553255
0.721362693963
1.53196350619
1.29376140073
0.338359267546
0.341876781993
2.60590918607
1.06496995559
1.07789743395
0.247244188128
3615.54925072
3321.44208223
3.09650816193
3.13143946956
3.12427507379
2.65079121417
3474.81990105
9.11655171983
8.16284508028
9.0992361912
8.83166923821
3450.01291654
2.84629510679
3.41404299833
3.7509066683
3566.33534499
297.29347725
280.295086348
369.45834882
351.605209876
3387.97441275
322.201858521
301.999176048
3553.18250797
8.60094021032
59.0169596212
61.3807301452
55.4887835902
57.9247973313
8.17976256773
8.82966383429
64.1488433637
65.4704009435
61.86554416
62.9402824265
8.84108888805
3407.63366499
344.277178347
328.300571973
3595.01816712
3309.22325004
3305.91222087
3338.6901095
3342.2182027
3345.35250758
3326.71212876
3327.17515274
3506.90668808
3433.35698268
3326.83921513
3325.99557374
3316.62734862
3313.01351412
3578.45822394
292.004837196
1379.72153728
1393.5860918
1346.72218454
1364.40996049
286.326788996
364.369853765
1573.26936702
1587.53345065
1541.75175888
1559.22235412
359.056670763
3366.03913764
3344.35583042
3341.94149574
316.030317881
1444.17879422
1463.71198174
1406.89197819
1422.83009332
308.508311108
3534.65777032
3324.17914797
3319.96668342
3335.09006556
3329.87531953
3419.2613759
338.839410562
1508.35746224
1522.97732513
1479.52669318
1494.04074973
333.860752089
56.0648423891
22.4065755991
22.5884326831
23.0024709951
22.7594409965
56.9633987389
60.5496146012
24.4610197371
23.7765479356
24.6591520326
24.5504737938
61.1074381507
62.2959774567
23.9343244304
24.0813262002
23.7012849797
23.370202805
62.2676299811
65.353937261
24.1585382215
23.7987615681
24.0565378086
23.9244366858
65.5067440008
0.923737046767
0.591699723323
1.0723491046
0.970236078223
0.484068767459
0.121239852751
0.508196510982
1.19897750446
1.21341599059
0.591025566053
0.136446510914
0.230828879672
3.42588197278
1.22867175277
1.44971381027
0.244277588926
3299.13057673
3046.39062772
3.92182114934
3.93704364936
4.06897072434
3.57532605487
3177.3451622
9.66670091207
8.759201681
8.56224764573
9.4907148823
3156.84336364
3.69411932538
3.77313228075
3.88269910095
3259.50214764
394.942559771
375.739047295
479.487309583
454.501906802
3106.57857029
425.257336554
400.930367462
3248.08811748
8.90562698263
67.8572751477
72.4947315539
65.6906202677
66.7666471248
8.70588235519
8.49844096215
73.4456797552
76.8813284448
72.6550064939
72.8363260648
8.8676472969
3119.396615
447.930787737
430.569573992
3282.23106162
3332.88863076
3335.47616422
3311.53561638
3318.04169982
3068.00449423
3328.9944189
3338.16971939
3203.22401952
3143.54149074
3320.15272352
3322.92292701
3334.76669041
3332.3454429
3268.49954086
389.218071126
1632.10489622
1645.79497879
1602.92774426
1618.00973455
382.906193109
470.310801506
1807.08763461
1822.25380151
1772.47063295
1788.33409591
461.595335698
3089.45754155
3318.51695231
3316.78897485
417.945952597
1696.99201667
1710.88513003
1660.99260966
1679.62768804
408.278529978
3226.91764027
3344.76855813
3340.7252821
3317.46314797
3318.62996119
3131.53722163
441.939438386
1746.89667254
1759.37792219
1722.64728404
1734.45879447
435.891438468
66.1021954409
23.3267998471
23.5884103475
22.7836266023
22.6814172033
66.3363249873
69.4104746298
24.4070851161
23.039401631
25.4182793069
25.1204824892
71.4640246861
72.859777705
25.3626578913
25.7254221599
23.9623985728
24.1256974372
72.5959808724
74.3017192347
23.8323634759
23.5230173669
23.8010853253
23.5778024801
74.8463165148
1.97402393296
0.754955585147
0.90980986625
0.435192801701
0.128199637696
0.359683953572
0.952496227249
1.11640560252
0.661652564683
0.270770449752
0.100616554071
0.281574730665
3.88479599031
4.25309028339
1.60637407178
1.64866813877
0.272185782068
3031.50167148
2827.94324685
4.05399127769
2821.03939888
2633.35627302
4.61500559416
3.55740061118
3.52604107241
3.84973286073
4.28958366011
4.42400304606
4.4172864822
2929.81685764
8.46013428425
8.16918860533
8.77575756421
9.03952030343
2914.4630537
3.91151895057
3.80277646127
3.9843034009
2728.2563488
9.04765815097
8.61566519732
9.27513561456
8.81284944021
2717.3087647
4.5173178656
4.45023079222
4.33113668838
3001.35150151
508.636884203
487.100345702
608.809004114
587.64847095
2857.81328115
2776.60242663
650.233423755
617.484643008
748.741955461
727.970527257
2663.6442209
545.693197626
516.607879286
2986.82045645
78.7825569823
85.1894841622
7.82461911493
8.7371832565
107.667844268
113.995560377
2872.12038035
580.122516776
555.097846087
678.866972428
657.756236954
2762.33878499
9.18038265738
129.429355926
135.41479032
116.730045121
126.96433113
9.38539788002
9.3432342809
151.523641342
159.953812111
138.179248815
147.648600012
9.20399328589
2678.74066747
718.862910397
687.820637913
3021.0672986
3297.99977053
3304.51002344
3233.93945266
3238.00791984
2836.66294054
2812.49016334
3232.49344657
3231.5575406
3157.07861499
3166.88365418
2639.68606844
3271.04410982
3274.82592937
2946.24280918
2901.30509789
3267.9364634
3268.54411812
3197.92505259
3204.5004808
2738.53108804
2707.7352176
3188.22245451
3192.18481139
3286.88233504
3292.14120983
3011.72703563
1832.13234916
1839.0041011
494.452504939
601.562388381
1960.83543815
1967.96895817
1947.71473252
1954.09820891
594.656302014
2846.28587054
3242.85517795
3249.11262792
3225.69082993
3232.1717452
2793.29543109
639.310514093
2003.01601262
2012.81978011
1976.41870125
1987.75461674
627.515304424
741.851367904
2091.00488278
2094.19750017
2082.14675349
2087.49603143
735.175283184
2649.34325621
3174.93953515
3181.46866711
2966.85984745
3278.92419528
3282.47529341
3257.16817365
3264.49630343
2887.78880745
671.523904338
2029.74740211
2035.96470741
2018.78607602
2024.20780622
664.500389489
2749.44386938
3211.90514681
3219.22752788
3186.67608487
3187.50572484
2696.55438697
708.414116217
2062.6918596
2074.94992105
2043.5912201
2052.36130066
698.147278927
501.634905512
1845.7339143
1853.27227951
7.99463638013
87.3973188612
95.4550678529
1863.21229568
1876.27693963
526.197461634
536.320946813
1889.57887277
1901.37827886
98.7967705402
105.262430116
9.01565302075
1912.84254814
1922.81500428
563.959734681
571.974559322
1932.08579736
1940.78061113
81.0643419042
23.9158872195
23.9636084724
24.7211120808
24.5206944686
83.2931263342
89.891486413
25.6895911714
25.1050522015
26.962201226
26.0222333654
92.5812898109
101.427968947
28.6387326106
28.1317902328
28.6634472283
28.5202135624
103.084940687
109.911608171
29.2576584857
28.8501129813
29.7515046186
29.2400476785
111.791281137
119.739789474
30.8132188536
29.8507151021
32.4172296726
31.511679805
123.14155534
131.422307564
32.4584922468
32.4097841648
32.2355017758
31.9572774674
133.305235921
141.446288281
32.8272840282
32.3302542924
34.0117760421
33.0886589537
144.553418605
154.37970607
35.2706187616
34.8196726502
35.8084755392
35.6713565717
157.144999039
3.26686249156
0.73026144688
0.45961450716
0.0659380745138
0.251109699192
0.758086270696
1.0149962282
0.71191145456
0.414927248356
0.342092306195
0.228455809403
0.172069211109
0.124674576887
0.117279620485
0.0161093362492
0.311363120873
0.484423957736
4.5995190881
1.82743943376
2.10538290038
0.364627652153
2.26423682093
2.33677087986
0.587512525081
2629.33904305
2467.87426567
4.74678752928
4.18357053645
4.43122771633
4.70147602916
2546.90867633
9.53872864736
8.62013339034
9.30839875284
9.45317817969
2537.46568864
4.61999147357
4.35404099265
4.49262542745
2612.6514536
784.627598022
756.260258211
896.821493333
861.039063124
2520.23554735
818.547399722
797.155470589
2593.19943123
9.15246332955
174.957285841
182.843468799
162.568169703
171.626736757
8.72699271685
9.26856614669
200.326375801
210.616551575
185.158701155
195.821103074
9.49262514157
2525.44899438
849.937530398
824.593026146
2627.0902916
3144.32001667
3149.71289253
3085.04122235
3093.18123928
2483.98115366
3122.25150415
3132.20259767
2562.03475162
2530.97043735
3102.26049089
3110.78798501
3144.83443268
3142.28867995
2624.3791757
773.538483805
2109.33761053
2120.18784583
2097.90492109
2102.59205552
764.148120902
887.688161307
2197.81728979
2204.01762521
2172.39085808
2185.70894243
875.105974266
2502.65771647
3097.45614323
3093.16494915
812.900415062
2146.17093694
2149.51085397
2134.50271254
2141.99753475
806.478789633
2577.58671273
3139.26560328
3144.96736408
3091.15731754
3094.83139341
2526.3898044
840.225310955
2160.10147278
2164.94692108
2152.69561126
2156.0731536
831.612576712
165.055653192
35.6858374383
35.488625679
36.3063871174
35.6868956267
168.096297214
178.117417244
37.2634027836
36.3835313009
38.1352370262
37.5717869114
180.559344458
187.91952324
38.8244157853
38.4246192693
40.2624440605
39.4408031481
191.643244098
205.287413045
40.8336070212
40.5634617112
39.9390482769
40.033066161
208.349401548
9.66654769451
0.257554201605
0.122888195129
0.113618766835
0.20651746707
0.511473429917
0.613783552911
0.84806799227
0.928955476104
0.768267608132
0.735530834721
0.457636417339
0.255218732555
0.132217854881
0.032374416119
0.108422202949
0.659236284887
4.67380212099
2.34457157701
2.38497555422
0.75890263876
2452.22267691
2357.80928678
4.67147128379
4.98649156397
5.16699955221
4.76011066766
2415.55169209
10.4033290103
9.26141610037
10.8174246872
10.2018365115
2399.59584764
4.60537203682
5.18328426463
5.11132700197
2436.29808106
918.4609652
904.159643502
1014.85222907
993.011732164
2345.04859467
963.840282306
922.906713192
2439.24511593
10.3479930996
220.604780244
238.072858144
212.495247514
217.207173156
9.69812714747
10.5816283281
247.813884149
259.760740462
240.536257747
245.909986309
10.3166983344
2352.87447953
990.103785248
975.400560355
2442.10847312
3057.61930729
3073.43598809
2976.56634924
2980.88331881
2346.77143717
3044.79805354
3046.3701554
2433.85908725
2384.49586009
3033.23412398
3039.68606231
3042.04504822
3047.66215536
2437.65383207
914.601784596
2208.79929756
2209.83563654
2206.41394252
2207.74232328
909.806670134
1004.00498439
2253.2377058
2254.78379959
2251.74789539
2252.52547155
996.641941882
2342.5410135
2987.75055043
2995.18233572
948.055308058
2222.1301798
2236.58873869
2210.34871225
2211.95426412
932.278147686
2443.60920263
3040.6598286
3038.80503113
3007.06335023
3023.61214531
2368.48300819
986.778936484
2251.18469198
2251.10801278
2246.29532046
2250.6650848
982.430605592
214.221952844
39.4417045184
39.2488386504
40.4046831877
39.2214431321
215.782314929
227.09576984
44.1476044715
42.444821837
44.6649384412
44.7189875225
233.514564013
242.49241257
43.6132589826
43.7595632269
44.0795238472
43.6700397166
244.258500667
250.688360403
46.3326400505
44.8319044131
47.5107529383
46.9461970656
254.541053525
3.5422573247
2.27904702116
36.8396588375
30.2309751732
12.601807758
20.3652700485
126.23410968
638.070765383
0.114193429706
0.544525944398
0.435653923004
0.775651403466
0.764278118439
0.499762648231
0.28429861133
0.153993176806
0.0706764476362
0.0379879967498
0.186763726936
0.819097696072
4.50586527613
2.44187657955
2.52819848674
0.946922325862
2361.39071838
2212.99973204
3.83405875613
5.54794554581
6.0052079717
4.43455364971
2257.70080651
12.7713057322
10.5399810295
14.3784662092
12.0321684102
2256.62815863
4.06043230007
5.56564883499
5.58504831362
2317.56334262
1065.04512878
1028.38533727
1158.36407122
1130.86430689
2259.4163733
1084.28883901
1069.43183418
2301.15809993
12.2561762874
275.291059635
283.263608294
264.988413217
273.948667386
10.84998508
13.7794291965
304.565494296
315.232517533
287.712846542
299.782294869
11.9645853605
2276.01286416
1118.37977395
1092.62349608
2347.62371758
2986.32062637
2978.97704281
2901.58456286
2901.60421408
2228.97363347
2929.14942403
2943.74808457
2264.29064348
2264.33269201
2907.91736622
2917.00627999
2980.59790884
2984.40039974
2331.58805142
1057.63295134
2286.05125337
2291.91340845
2260.50278787
2274.33936715
1044.26283167
1155.06659143
2318.92263147
2323.06867316
2307.80597763
2314.60199196
1147.11801514
2242.10865549
2903.3578218
2910.9307788
1077.88037249
2293.00719398
2293.20446208
2293.62256378
2293.28160891
1073.04720898
2279.33973354
2962.88880038
2974.74952629
2905.9391224
2903.00146596
2276.93499011
1109.89443853
2292.43673328
2296.4810911
2293.31936389
2292.46535039
1101.50549372
269.871231725
46.9452484813
47.1626267255
46.1964566136
45.7731537439
272.832639215
277.973841453
47.3872008167
46.168651598
48.8070585094
48.3352253538
280.476958003
291.899568945
49.7639499786
49.6301962925
50.9276415615
50.1713026074
295.625849208
311.581153489
53.5464078345
51.9683662525
53.9725772074
53.7662755798
314.105762479
0.67508287764
0.212548990646
852.423076347
753.123352642
0.435415235688
0.957702074168
808.363923238
5.00148181852
5.92063420443
0.501968362801
1.19368610155
626.955664833
0.863363009638
0.345315050225
735.751481466
0.277679400171
0.320744792525
0.215313764447
0.168790244582
0.378887761969
0.118725154969
834.215245235
738.548940747
753.829430119
4.50903750111
5.96803197109
797.556851945
2.87669484863
2.49983837709
0.788044502232
715.245669956
726.453428223
820.011156766
37.1580936697
35.3197586454
5.27850802487
4.97510365636
34.6054603789
34.5573709474
785.446314319
692.362897017
703.470200752
665.650399367
680.53051292
771.633880568
0.471018338942
2.71524087635
2.26600396211
701.543727449
4.43044972092
3.76444341027
5.30318422927
32.6511499403
30.1604149898
34.508111898
33.7751832203
5.71762293048
0.699899128286
3.75796949148
689.202461766
0.314363200645
0.329450120008
0.284163610682
530.926606824
3.71321364386
0.644570525402
1.60710847883
1.46411660706
0.527834797728
722.7024202
640.087988112
651.394055336
617.3545828
628.336364546
712.445811161
28.8748828475
28.2192601687
3.14721266186
4.37630447095
28.7012621072
28.0017775698
673.661399308
593.925136438
606.627729478
565.620204233
578.084749118
653.310627932
590.498313099
1.25390918284
1.47042525446
0.757307440197
1.14429895004
0.816949819616
27.4795748724
25.5136125565
2.82570769822
617.578341161
540.452138787
553.590441504
1.1275392224
22.9471297472
21.9341805705
11.5433758329
2.35437420024
520.508900229
0.22759903951
0.134218442455
0.343478334237
1.34925754735
1.68560878
0.656227039353
4.74560950957
2.55284601539
572.180740105
1.32005017555
1.47546377117
1.01695671176
515.132330198
528.72116788
605.401791533
22.7070755686
22.4233542895
2.64695186139
1.3148764573
21.2284279742
19.3375064558
554.874120038
481.102830524
498.436375882
442.849241975
463.335267126
541.870666844
2.72133630172
1.28203482824
4.73072649727
470.037271367
20.7859325156
10.910089792
17.8192676878
16.9474732148
3.59884216847
72.7556686844
49.0337420725
444.859071463
0.325123049414
0.456320104831
1.16632013178
7.45381376323
4.8030163174
1.18095757349
503.886064932
397.967914698
422.346955873
3.49840985861
19.3527876636
22.2030934979
341.45721057
372.429806598
489.152065093
25.8140946184
28.6472754415
16.009888992
19.5654712224
40.4203057508
51.3289966688
403.693800499
209.694310121
276.994818707
868.072175575
0.23198288704
0.754559843353
0.780111840364
0.527465414988
0.305866455274
0.164980665904
0.0746143862301
0.0430690693783
0.0938353616951
0.270575376548
1.03924342169
3.26813888344
2.58762544592
2.45362330146
1.10062154494
2196.1832476
2115.59999274
2.81097076865
4.97333841813
4.8138229914
3.15803433413
2192.75715675
12.8803243519
14.2795875833
14.5865093989
15.0125797981
2177.98078099
2.80451677227
5.12523473501
4.92171059715
2177.70591637
1184.17887847
1160.53855076
1272.50786199
1241.53092768
2104.53559173
1222.20051188
1192.70962857
2187.10682533
12.9223748582
333.682212307
346.673383215
316.866241589
328.597584004
13.082209117
15.4141632428
366.231313633
386.285483433
349.400686626
360.80275837
16.0882054105
2116.65176085
1232.72045621
1230.59336581
2184.56720688
2891.78679228
2900.4047631
2761.25197889
2769.00842385
2105.43518817
2846.02516862
2834.32722793
2205.45315427
2162.88192173
2855.61334984
2852.3624255
2849.50372818
2868.44179616
2177.45530751
1174.06725247
2330.56473542
2330.23464882
2325.36781813
2327.25612379
1164.58537229
2346.64059804
2345.20851922
1252.07746113
2100.71227761
2784.27878466
2809.31515925
1210.41791649
2324.56738647
2335.12104557
2326.75070367
2323.42829036
1201.22109625
2201.66897621
2831.23188885
2838.1134282
2838.92223994
2853.2604644
2139.84568258
1229.39042565
2344.51826399
2345.61078405
2342.45302639
2344.22818251
1230.77414042
1262.36869683
2341.22410335
2339.42288381
0.184037960023
0.264758859045
1067.40230729
320.269290154
54.7814504749
54.8473966191
55.367865244
54.905242958
324.45120077
975.149778733
1.32738744273
1.59269928584
1027.30422905
7.76462572738
8.41474463478
1.1034486406
1.30588492052
962.879572555
0.508084180138
0.540310163306
0.344837132344
338.467229829
56.508321373
56.11790192
0.560874274205
0.484577857749
0.245105007796
1055.52880025
934.517707751
945.828394453
7.54544945406
7.32927501313
1011.19749074
4.44795774527
4.24721554433
1.53487163436
910.41519578
923.299171836
1042.76237832
52.5984598955
51.819914369
8.43823546234
55.8547847769
55.6308009346
342.720935647
862.830736063
874.656036849
986.482607271
1.46952932723
3.84483263935
3.62236435193
8.2283041664
50.8651979563
49.0546644542
916.315554851
6.00816263291
7.4679394877
6.98799919962
46.6564280549
46.1293828242
47.729876054
46.8420605344
6.8007208478
998.118695579
885.57303973
896.73247731
6.23471360926
5.76449607264
903.716350314
0.140784300996
0.356257101888
0.181875307429
3.67041359269
3.24653880956
1.24061011342
949.087970529
839.775073276
851.57876137
812.280083523
825.33091015
931.696582927
45.4056108138
44.0712098769
7.05027006442
766.871184726
778.233086991
880.909351134
352.763332474
58.8838188092
56.3969425607
1.17938695022
2.96047053871
3.1516071518
6.66252606067
42.1840642372
41.0607116426
40.527924433
40.4096785289
6.21250109461
892.578146093
789.801456378
801.347954304
6.57763345689
39.8107454983
38.8349912122
64.2458341527
62.447246089
356.669764307
372.891061614
66.5967583116
65.6137877044
68.5905863866
67.920524969
380.011579833
1078.74982575
0.53603439156
0.741108079263
0.575947105842
0.337781697841
0.197089519913
0.114760386465
0.0532335936929
0.0538810372075
0.112956095281
0.234043144757
0.976170429485
3.07111435791
2.37717273255
2.5187834855
0.980365775421
2114.25089971
1943.49499627
3.55709150003
2024.09253949
18.5513774482
14.3510702464
21.5666439026
15.9374005942
2041.76520098
3.42237877528
5.42805723698
6.26519446286
2058.18186133
1299.30669334
1283.55286664
1355.40010361
1355.16485815
2016.96891002
1304.83615362
1299.7782395
2028.42077278
17.4421144684
443.437743305
452.140728636
2036.72426747
1348.2142738
1311.49818375
2100.62177128
2780.35511158
2762.13991477
2727.58425348
2740.86410586
1958.23352001
2737.31204559
2753.04951006
2015.57816891
2053.49792883
2718.30769504
2726.35093717
2794.6796852
2794.11142172
2083.11715569
1359.40391008
2401.51203207
2400.6372897
1988.72354961
2748.02322354
2748.62769904
2015.468491
2775.24485476
2789.08353854
2734.74207844
2717.07550864
2051.61106665
432.013951621
442.500594659
15.327410486
1337.72121186
2359.13151677
2372.37859777
2356.13142812
2353.1477499
1321.83977035
2384.38456544
2394.76159532
1359.50171698
5.48315051001
5.72207091104
3.18662183336
391.515388697
399.639411164