/*--------------------------------*- C++ -*----------------------------------*\
  =========                 |
  \\      /  F ield         | OpenFOAM: The Open Source CFD Toolbox
   \\    /   O peration     | Website:  https://openfoam.org
    \\  /    A nd           | Version:  8
     \\/     M anipulation  |
\*---------------------------------------------------------------------------*/
FoamFile
{
    version     2.0;
    format      ascii;
    class       volScalarField;
    location    "1e-05";
    object      maxp;
}
// * * * * * * * * * * * * * * * * * * * * * * * * * * * * * * * * * * * * * //

dimensions      [1 -1 -2 0 0 0 0];

internalField   nonuniform List<scalar> 
49758
(
101325.000227
101325.000819
101325.003552
101325.015562
101325.068703
101325.305804
101326.376585
101331.265695
101353.823715
101460.609286
102464.213008
104419.333591
144482.607952
111640.425081
130070.77068
109026.281168
201203.385871
207261.378169
144482.607952
144482.607952
144482.607952
144482.607952
122007.631153
115645.825171
121591.21949
212570.040535
173201.625975
173201.625975
195717.931495
195717.931495
199619.051675
144482.607952
144482.607952
144482.607952
217152.54887
196115.438839
196115.438839
207261.378169
207261.378169
207261.378169
144482.607952
144482.607952
144482.607952
144482.607952
144482.607952
144482.607952
212570.040535
212570.040535
212570.040535
173201.625975
173201.625975
173201.625975
173201.625975
173201.625975
173201.625975
195717.931495
195717.931495
195717.931495
195717.931495
195717.931495
195717.931495
201263.689284
199619.051675
199619.051675
144482.607952
144482.607952
144482.607952
144482.607952
144482.607952
144482.607952
144482.607952
144482.607952
144482.607952
210467.61717
201203.385871
201203.385871
207261.378169
207261.378169
207261.378169
212570.040535
212570.040535
212570.040535
173201.625975
173201.625975
173201.625975
195717.931495
195717.931495
195717.931495
199619.051675
199619.051675
199619.051675
144482.607952
144482.607952
144482.607952
217152.54887
217152.54887
217152.54887
196115.438839
196115.438839
196115.438839
196115.438839
196115.438839
196115.438839
207261.378169
207261.378169
207261.378169
207261.378169
207261.378169
207261.378169
207261.378169
207261.378169
207261.378169
144482.607952
144482.607952
144482.607952
212570.040535
212570.040535
212570.040535
212570.040535
212570.040535
212570.040535
212570.040535
212570.040535
212570.040535
173201.625975
173201.625975
173201.625975
173201.625975
173201.625975
173201.625975
173201.625975
173201.625975
173201.625975
173201.625975
173201.625975
173201.625975
201263.689284
201263.689284
201263.689284
199619.051675
199619.051675
199619.051675
199619.051675
199619.051675
199619.051675
144482.607952
144482.607952
144482.607952
144482.607952
144482.607952
144482.607952
144482.607952
144482.607952
144482.607952
101325.022798
101325.058716
101325.198593
101325.677457
101327.322626
101332.975126
101352.411106
101419.304247
101642.261355
102718.088193
110203.911043
120898.527646
150747.198444
128613.691824
127302.58805
125289.959045
196352.051063
205866.614534
150747.198444
150747.198444
150747.198444
150747.198444
206494.347405
194612.447105
194612.447105
195232.837223
195232.837223
203080.16241
150747.198444
150747.198444
150747.198444
196352.051063
196352.051063
196352.051063
205866.614534
205866.614534
205866.614534
206494.347405
206494.347405
206494.347405
194612.447105
194612.447105
194612.447105
194612.447105
194612.447105
194612.447105
195232.837223
195232.837223
195232.837223
195232.837223
195232.837223
195232.837223
203080.16241
203080.16241
203080.16241
196352.051063
196352.051063
196352.051063
205866.614534
205866.614534
205866.614534
206494.347405
206494.347405
206494.347405
203080.16241
203080.16241
203080.16241
196352.051063
196352.051063
196352.051063
196352.051063
196352.051063
196352.051063
196352.051063
196352.051063
196352.051063
205866.614534
205866.614534
205866.614534
205866.614534
205866.614534
205866.614534
205866.614534
205866.614534
205866.614534
206494.347405
206494.347405
206494.347405
206494.347405
206494.347405
206494.347405
206494.347405
206494.347405
206494.347405
203080.16241
203080.16241
203080.16241
203080.16241
203080.16241
203080.16241
203080.16241
203080.16241
203080.16241
101325.286025
101325.645555
101327.013505
101331.219845
101344.280673
101384.507139
101508.090005
101882.481953
103049.155773
108852.42035
121999.041953
125336.455031
127580.805843
150850.464238
150750.818787
127861.835601
129603.460597
125726.112995
130910.523806
131553.807587
129112.537464
203676.555309
204852.977797
150850.464238
204342.363454
204543.997916
150750.818787
150850.464238
150850.464238
150850.464238
150750.818787
150750.818787
150750.818787
204754.500187
196197.982532
196197.982532
196571.63029
196571.63029
203788.302236
150850.464238
150850.464238
150850.464238
204716.630327
196405.424159
196405.424159
196338.829674
196338.829674
204510.066767
150750.818787
150750.818787
150750.818787
203676.555309
203676.555309
203676.555309
204852.977797
204852.977797
204852.977797
204342.363454
204342.363454
204342.363454
204543.997916
204543.997916
204543.997916
204754.500187
204754.500187
204754.500187
196197.982532
196197.982532
196197.982532
196197.982532
196197.982532
196197.982532
196571.63029
196571.63029
196571.63029
196571.63029
196571.63029
196571.63029
203788.302236
203788.302236
203788.302236
204716.630327
204716.630327
204716.630327
196405.424159
196405.424159
196405.424159
196405.424159
196405.424159
196405.424159
196338.829674
196338.829674
196338.829674
196338.829674
196338.829674
196338.829674
204510.066767
204510.066767
204510.066767
203676.555309
203676.555309
203676.555309
204852.977797
204852.977797
204852.977797
204342.363454
204342.363454
204342.363454
204543.997916
204543.997916
204543.997916
204754.500187
204754.500187
204754.500187
203788.302236
203788.302236
203788.302236
204716.630327
204716.630327
204716.630327
204510.066767
204510.066767
204510.066767
203676.555309
203676.555309
203676.555309
203676.555309
203676.555309
203676.555309
203676.555309
203676.555309
203676.555309
204852.977797
204852.977797
204852.977797
204852.977797
204852.977797
204852.977797
204852.977797
204852.977797
204852.977797
204342.363454
204342.363454
204342.363454
204342.363454
204342.363454
204342.363454
204342.363454
204342.363454
204342.363454
204543.997916
204543.997916
204543.997916
204543.997916
204543.997916
204543.997916
204543.997916
204543.997916
204543.997916
204754.500187
204754.500187
204754.500187
204754.500187
204754.500187
204754.500187
204754.500187
204754.500187
204754.500187
203788.302236
203788.302236
203788.302236
203788.302236
203788.302236
203788.302236
203788.302236
203788.302236
203788.302236
204716.630327
204716.630327
204716.630327
204716.630327
204716.630327
204716.630327
204716.630327
204716.630327
204716.630327
204510.066767
204510.066767
204510.066767
204510.066767
204510.066767
204510.066767
204510.066767
204510.066767
204510.066767
196338.829674
196338.829674
196338.829674
196338.829674
196338.829674
196338.829674
196338.829674
196338.829674
196338.829674
101327.150045
101329.425976
101338.049453
101362.46067
101432.389608
101632.415042
102183.82968
103839.954327
103769.42729
106572.063594
107873.762427
114774.611246
118366.899873
122579.809072
124558.382395
127753.959898
130083.425106
150718.402236
131765.834518
131788.963161
130510.863769
204464.768219
204389.837863
150718.402236
150718.402236
150718.402236
150718.402236
204446.161823
196277.934261
196277.934261
196248.797258
196248.797258
204407.205712
150718.402236
150718.402236
150718.402236
204464.768219
204464.768219
204464.768219
204389.837863
204389.837863
204389.837863
204446.161823
204446.161823
204446.161823
196277.934261
196277.934261
196277.934261
196277.934261
196277.934261
196277.934261
196248.797258
196248.797258
196248.797258
196248.797258
196248.797258
196248.797258
204407.205712
204407.205712
204407.205712
204464.768219
204464.768219
204464.768219
204389.837863
204389.837863
204389.837863
204446.161823
204446.161823
204446.161823
204407.205712
204407.205712
204407.205712
204464.768219
204464.768219
204464.768219
204464.768219
204464.768219
204464.768219
204464.768219
204464.768219
204464.768219
204389.837863
204389.837863
204389.837863
204389.837863
204389.837863
204389.837863
204389.837863
204389.837863
204389.837863
204446.161823
204446.161823
204446.161823
204446.161823
204446.161823
204446.161823
204446.161823
204446.161823
204446.161823
204407.205712
204407.205712
204407.205712
204407.205712
204407.205712
204407.205712
204407.205712
204407.205712
204407.205712
196248.797258
196248.797258
196248.797258
196248.797258
196248.797258
196248.797258
196248.797258
196248.797258
196248.797258
196248.797258
196248.797258
196248.797258
196277.934261
196277.934261
196277.934261
196277.934261
196277.934261
196277.934261
196277.934261
196277.934261
196277.934261
196277.934261
196277.934261
196277.934261
101336.765551
101346.046474
101400.479026
101383.365618
101522.873187
101479.112701
101802.581169
101726.974182
102463.831014
102344.018546
103842.667792
105932.287182
111677.764162
120144.094563
126075.354596
129864.677903
130596.325958
149989.443066
131684.996075
131620.562662
130515.012849
204075.534301
204100.601627
149989.443066
149989.443066
149989.443066
149989.443066
204061.476356
195810.531676
195810.531676
195748.054907
195748.054907
203980.843292
149989.443066
149989.443066
149989.443066
204075.534301
204075.534301
204075.534301
204100.601627
204100.601627
204100.601627
204061.476356
204061.476356
204061.476356
195810.531676
195810.531676
195810.531676
195810.531676
195810.531676
195810.531676
195748.054907
195748.054907
195748.054907
195748.054907
195748.054907
195748.054907
203980.843292
203980.843292
203980.843292
204075.534301
204075.534301
204075.534301
204100.601627
204100.601627
204100.601627
204061.476356
204061.476356
204061.476356
203980.843292
203980.843292
203980.843292
204075.534301
204075.534301
204075.534301
204075.534301
204075.534301
204075.534301
204075.534301
204075.534301
204075.534301
204100.601627
204100.601627
204100.601627
204100.601627
204100.601627
204100.601627
204100.601627
204100.601627
204100.601627
204061.476356
204061.476356
204061.476356
204061.476356
204061.476356
204061.476356
204061.476356
204061.476356
204061.476356
203980.843292
203980.843292
203980.843292
203980.843292
203980.843292
203980.843292
203980.843292
203980.843292
203980.843292
195810.531676
195810.531676
195810.531676
195810.531676
195810.531676
195810.531676
195810.531676
195810.531676
195810.531676
195810.531676
195810.531676
195810.531676
195748.054907
195748.054907
195748.054907
195748.054907
195748.054907
195748.054907
195748.054907
195748.054907
195748.054907
195748.054907
195748.054907
195748.054907
101374.097489
101491.27367
101542.470138
101862.182576
102512.021347
103689.668002
105272.977833
108666.442988
117115.285576
124055.656802
129016.007943
130535.6701
130864.658499
161612.857196
133109.738548
133756.472481
132089.431236
208805.470744
207095.092591
161612.857196
161612.857196
161612.857196
161612.857196
208789.401156
203456.005923
203456.005923
204937.591441
204937.591441
208883.092233
161612.857196
161612.857196
161612.857196
208805.470744
208805.470744
208805.470744
207095.092591
207095.092591
207095.092591
208789.401156
208789.401156
208789.401156
203456.005923
203456.005923
203456.005923
203456.005923
203456.005923
203456.005923
204937.591441
204937.591441
204937.591441
204937.591441
204937.591441
204937.591441
208883.092233
208883.092233
208883.092233
208805.470744
208805.470744
208805.470744
207095.092591
207095.092591
207095.092591
208789.401156
208789.401156
208789.401156
208883.092233
208883.092233
208883.092233
208805.470744
208805.470744
208805.470744
208805.470744
208805.470744
208805.470744
208805.470744
208805.470744
208805.470744
207095.092591
207095.092591
207095.092591
207095.092591
207095.092591
207095.092591
207095.092591
207095.092591
207095.092591
208789.401156
208789.401156
208789.401156
208789.401156
208789.401156
208789.401156
208789.401156
208789.401156
208789.401156
208883.092233
208883.092233
208883.092233
208883.092233
208883.092233
208883.092233
208883.092233
208883.092233
208883.092233
203456.005923
203456.005923
203456.005923
203456.005923
203456.005923
203456.005923
203456.005923
203456.005923
203456.005923
203456.005923
203456.005923
203456.005923
204937.591441
204937.591441
204937.591441
204937.591441
204937.591441
204937.591441
204937.591441
204937.591441
204937.591441
204937.591441
204937.591441
204937.591441
101807.970009
101842.570874
102535.095772
103548.85684
104879.365632
107206.23984
113572.879528
121503.715157
127820.173721
130445.598797
132023.4741
132915.61876
166906.247896
134380.753467
134509.00935
133868.20915
211100.374709
212524.273676
166906.247896
166906.247896
166906.247896
166906.247896
210893.000667
210893.000667
210893.000667
212243.313023
212243.313023
212243.313023
166906.247896
166906.247896
166906.247896
211100.374709
211100.374709
211100.374709
212524.273676
212524.273676
212524.273676
210893.000667
210893.000667
210893.000667
210893.000667
210893.000667
210893.000667
210893.000667
210893.000667
210893.000667
212243.313023
212243.313023
212243.313023
212243.313023
212243.313023
212243.313023
212243.313023
212243.313023
212243.313023
211100.374709
211100.374709
211100.374709
212524.273676
212524.273676
212524.273676
210893.000667
210893.000667
210893.000667
212243.313023
212243.313023
212243.313023
211100.374709
211100.374709
211100.374709
211100.374709
211100.374709
211100.374709
211100.374709
211100.374709
211100.374709
212524.273676
212524.273676
212524.273676
212524.273676
212524.273676
212524.273676
212524.273676
212524.273676
212524.273676
210893.000667
210893.000667
210893.000667
210893.000667
210893.000667
210893.000667
210893.000667
210893.000667
210893.000667
212243.313023
212243.313023
212243.313023
212243.313023
212243.313023
212243.313023
212243.313023
212243.313023
212243.313023
210893.000667
210893.000667
210893.000667
210893.000667
210893.000667
210893.000667
210893.000667
210893.000667
210893.000667
210893.000667
210893.000667
210893.000667
212243.313023
212243.313023
212243.313023
212243.313023
212243.313023
212243.313023
212243.313023
212243.313023
212243.313023
212243.313023
212243.313023
212243.313023
102665.883455
102410.827044
103443.513689
104562.956426
106169.834207
110437.045818
118793.806803
126085.759209
130135.348182
132004.379795
133303.223806
133920.937931
157187.832579
152336.595739
133855.264749
134216.198526
133616.879272
209453.098237
212914.747382
157187.832579
209797.061099
209508.178072
152336.595739
157187.832579
157187.832579
157187.832579
152336.595739
152336.595739
152336.595739
210284.680148
206998.48225
206998.48225
206471.338444
206471.338444
210308.639753
157187.832579
157187.832579
157187.832579
211586.182333
201913.48354
201913.48354
200617.240635
200617.240635
210221.177548
152336.595739
152336.595739
152336.595739
209453.098237
209453.098237
209453.098237
212914.747382
212914.747382
212914.747382
209797.061099
209797.061099
209797.061099
209508.178072
209508.178072
209508.178072
210284.680148
210284.680148
210284.680148
206998.48225
206998.48225
206998.48225
206471.338444
206471.338444
206471.338444
210308.639753
210308.639753
210308.639753
211586.182333
211586.182333
211586.182333
201913.48354
201913.48354
201913.48354
201913.48354
201913.48354
201913.48354
200617.240635
200617.240635
200617.240635
200617.240635
200617.240635
200617.240635
210221.177548
210221.177548
210221.177548
209453.098237
209453.098237
209453.098237
212914.747382
212914.747382
212914.747382
209797.061099
209797.061099
209797.061099
209508.178072
209508.178072
209508.178072
210284.680148
210284.680148
210284.680148
210308.639753
210308.639753
210308.639753
211586.182333
211586.182333
211586.182333
210221.177548
210221.177548
210221.177548
209453.098237
209453.098237
209453.098237
209453.098237
209453.098237
209453.098237
212914.747382
212914.747382
212914.747382
212914.747382
212914.747382
212914.747382
212914.747382
212914.747382
212914.747382
209797.061099
209797.061099
209797.061099
209797.061099
209797.061099
209797.061099
209797.061099
209797.061099
209797.061099
209508.178072
209508.178072
209508.178072
209508.178072
209508.178072
209508.178072
209508.178072
209508.178072
209508.178072
210284.680148
210284.680148
210284.680148
210308.639753
210308.639753
210308.639753
211586.182333
211586.182333
211586.182333
211586.182333
211586.182333
211586.182333
211586.182333
211586.182333
211586.182333
210221.177548
210221.177548
210221.177548
210221.177548
210221.177548
210221.177548
210221.177548
210221.177548
210221.177548
209453.098237
209453.098237
209453.098237
206998.48225
206998.48225
206998.48225
210284.680148
210284.680148
210284.680148
210284.680148
210284.680148
210284.680148
206471.338444
206471.338444
206471.338444
210308.639753
210308.639753
210308.639753
210308.639753
210308.639753
210308.639753
206998.48225
206998.48225
206998.48225
206998.48225
206998.48225
206998.48225
206998.48225
206998.48225
206998.48225
206998.48225
206998.48225
206998.48225
206471.338444
206471.338444
206471.338444
206471.338444
206471.338444
206471.338444
206471.338444
206471.338444
206471.338444
206471.338444
206471.338444
206471.338444
201913.48354
201913.48354
201913.48354
201913.48354
201913.48354
201913.48354
201913.48354
201913.48354
201913.48354
201913.48354
201913.48354
201913.48354
200617.240635
200617.240635
200617.240635
200617.240635
200617.240635
200617.240635
200617.240635
200617.240635
200617.240635
200617.240635
200617.240635
200617.240635
104315.907478
103131.13269
104267.800262
105572.980042
108344.057499
115740.75069
123823.090779
129442.396179
131707.796886
131936.706583
132433.464849
132774.354901
132440.575382
133068.735422
133527.560292
134043.737863
134232.142123
150995.664441
134315.325676
134764.327747
134128.077669
134694.598813
133966.627496
134168.624128
208353.18511
206470.510062
150995.664441
150995.664441
150995.664441
150995.664441
207712.660138
198331.837909
198331.837909
197471.200774
197471.200774
207214.624506
150995.664441
150995.664441
150995.664441
208353.18511
208353.18511
208353.18511
206470.510062
206470.510062
206470.510062
207712.660138
207712.660138
207712.660138
198331.837909
198331.837909
198331.837909
198331.837909
198331.837909
198331.837909
197471.200774
197471.200774
197471.200774
197471.200774
197471.200774
197471.200774
207214.624506
207214.624506
207214.624506
208353.18511
208353.18511
208353.18511
206470.510062
206470.510062
206470.510062
207712.660138
207712.660138
207712.660138
207214.624506
207214.624506
207214.624506
208353.18511
208353.18511
208353.18511
208353.18511
208353.18511
208353.18511
208353.18511
208353.18511
208353.18511
206470.510062
206470.510062
206470.510062
206470.510062
206470.510062
206470.510062
206470.510062
206470.510062
206470.510062
207712.660138
207712.660138
207712.660138
207712.660138
207712.660138
207712.660138
207712.660138
207712.660138
207712.660138
207214.624506
207214.624506
207214.624506
207214.624506
207214.624506
207214.624506
207214.624506
207214.624506
207214.624506
198331.837909
198331.837909
198331.837909
198331.837909
198331.837909
198331.837909
198331.837909
198331.837909
198331.837909
198331.837909
198331.837909
198331.837909
197471.200774
197471.200774
197471.200774
197471.200774
197471.200774
197471.200774
197471.200774
197471.200774
197471.200774
197471.200774
197471.200774
197471.200774
109073.651269
103914.70441
105155.759409
106240.522187
107134.868989
109933.91403
112701.64087
118286.669876
121083.10948
126666.772677
128373.408615
131208.178683
132187.139104
132049.100181
132826.592607
134003.31367
133952.731803
161016.480382
134452.507221
134442.664082
134159.53564
210222.195133
207827.332587
161016.480382
161016.480382
161016.480382
161016.480382
209548.146629
203519.141297
203519.141297
204821.417996
204821.417996
209571.69567
161016.480382
161016.480382
161016.480382
210222.195133
210222.195133
210222.195133
207827.332587
207827.332587
207827.332587
209548.146629
209548.146629
209548.146629
203519.141297
203519.141297
203519.141297
203519.141297
203519.141297
203519.141297
204821.417996
204821.417996
204821.417996
204821.417996
204821.417996
204821.417996
209571.69567
209571.69567
209571.69567
210222.195133
210222.195133
210222.195133
207827.332587
207827.332587
207827.332587
209548.146629
209548.146629
209548.146629
209571.69567
209571.69567
209571.69567
210222.195133
210222.195133
210222.195133
210222.195133
210222.195133
210222.195133
210222.195133
210222.195133
210222.195133
207827.332587
207827.332587
207827.332587
207827.332587
207827.332587
207827.332587
207827.332587
207827.332587
207827.332587
209548.146629
209548.146629
209548.146629
209548.146629
209548.146629
209548.146629
209548.146629
209548.146629
209548.146629
209571.69567
209571.69567
209571.69567
209571.69567
209571.69567
209571.69567
209571.69567
209571.69567
209571.69567
203519.141297
203519.141297
203519.141297
203519.141297
203519.141297
203519.141297
203519.141297
203519.141297
203519.141297
203519.141297
203519.141297
203519.141297
204821.417996
204821.417996
204821.417996
204821.417996
204821.417996
204821.417996
204821.417996
204821.417996
204821.417996
204821.417996
204821.417996
204821.417996
104682.649847
104682.649847
116420.664889
115051.552734
105752.195277
105752.195277
126379.750788
161789.044092
104622.121514
105528.276375
108228.041792
115212.81165
124360.26285
130469.591245
131959.157654
131747.037515
132240.732706
133793.990856
134601.269232
134053.524573
166539.308008
134742.451468
134753.928632
134403.062198
211365.126878
212392.668424
166539.308008
166539.308008
166539.308008
166539.308008
210433.536344
210433.536344
210433.536344
212024.941125
212024.941125
212024.941125
166539.308008
166539.308008
166539.308008
211365.126878
211365.126878
211365.126878
212392.668424
212392.668424
212392.668424
210433.536344
210433.536344
210433.536344
210433.536344
210433.536344
210433.536344
210433.536344
210433.536344
210433.536344
212024.941125
212024.941125
212024.941125
212024.941125
212024.941125
212024.941125
212024.941125
212024.941125
212024.941125
211365.126878
211365.126878
211365.126878
212392.668424
212392.668424
212392.668424
210433.536344
210433.536344
210433.536344
212024.941125
212024.941125
212024.941125
211365.126878
211365.126878
211365.126878
211365.126878
211365.126878
211365.126878
211365.126878
211365.126878
211365.126878
212392.668424
212392.668424
212392.668424
212392.668424
212392.668424
212392.668424
212392.668424
212392.668424
212392.668424
210433.536344
210433.536344
210433.536344
210433.536344
210433.536344
210433.536344
210433.536344
210433.536344
210433.536344
212024.941125
212024.941125
212024.941125
212024.941125
212024.941125
212024.941125
212024.941125
212024.941125
212024.941125
210433.536344
210433.536344
210433.536344
210433.536344
210433.536344
210433.536344
210433.536344
210433.536344
210433.536344
210433.536344
210433.536344
210433.536344
212024.941125
212024.941125
212024.941125
212024.941125
212024.941125
212024.941125
212024.941125
212024.941125
212024.941125
212024.941125
212024.941125
212024.941125
107529.435813
107529.435813
184757.042609
173646.38171
108645.84887
108645.84887
180019.374192
110010.369095
110010.369095
105981.912032
105981.912032
160334.23595
108750.618736
108750.618736
172088.5354
105528.276375
105528.276375
105528.276375
107529.435813
107529.435813
107529.435813
183182.16429
113403.538804
113403.538804
110889.825629
110889.825629
178431.844737
108645.84887
108645.84887
108645.84887
112992.545129
112992.545129
181602.959932
110010.369095
110010.369095
110010.369095
110010.369095
110010.369095
110010.369095
176835.854662
114632.10656
114632.10656
115284.712141
115284.712141
175241.069457
108645.84887
108645.84887
108645.84887
167625.125399
111480.02908
111480.02908
110889.825629
110889.825629
110889.825629
110889.825629
110889.825629
110889.825629
110620.187251
110620.187251
166160.851623
107529.435813
107529.435813
107529.435813
150262.348564
107190.829007
107190.829007
108750.618736
108750.618736
108750.618736
170578.86142
115411.648399
115411.648399
114032.347465
114032.347465
169096.543237
111480.02908
111480.02908
111480.02908
111480.02908
111480.02908
111480.02908
164699.260309
113985.923202
113985.923202
113941.328486
113941.328486
163244.670751
155994.78338
109359.255674
109359.255674
108750.618736
108750.618736
108750.618736
110620.187251
110620.187251
110620.187251
158880.482845
112415.341516
112415.341516
110620.187251
110620.187251
110620.187251
107109.605085
107109.605085
148859.990245
104622.121514
104622.121514
104622.121514
105981.912032
105981.912032
105981.912032
109657.126428
109657.126428
154551.198102
107190.829007
107190.829007
107190.829007
113018.128994
113018.128994
157437.747299
109359.255674
109359.255674
109359.255674
109359.255674
109359.255674
109359.255674
153112.527848
112696.695442
112696.695442
112750.92525
112750.92525
151682.871264
107190.829007
107190.829007
107190.829007
144856.810904
109080.330538
109080.330538
109657.126428
109657.126428
109657.126428
108668.958779
108668.958779
143560.637836
105981.912032
105981.912032
105981.912032
107109.605085
107109.605085
107109.605085
147470.942912
113863.870243
113863.870243
109657.126428
109657.126428
109657.126428
111817.94485
111817.94485
146150.3749
109080.330538
109080.330538
109080.330538
109080.330538
109080.330538
109080.330538
142275.434939
112926.526693
112926.526693
186322.773108
106868.440217
112346.167443
121742.954623
129334.847444
131604.854434
131480.072906
131749.803166
133393.789615
134950.308812
134689.77877
134719.592556
168717.973104
135330.753984
136403.934045
135428.527974
214925.652758
215981.150526
168717.973104
168717.973104
168717.973104
168717.973104
214925.652758
214925.652758
214925.652758
215717.855204
215717.855204
215717.855204
168717.973104
168717.973104
168717.973104
214925.652758
214925.652758
214925.652758
215981.150526
215981.150526
215981.150526
214925.652758
214925.652758
214925.652758
214925.652758
214925.652758
214925.652758
214925.652758
214925.652758
214925.652758
215717.855204
215717.855204
215717.855204
215717.855204
215717.855204
215717.855204
215717.855204
215717.855204
215717.855204
214925.652758
214925.652758
214925.652758
215981.150526
215981.150526
215981.150526
214925.652758
214925.652758
214925.652758
215717.855204
215717.855204
215717.855204
214925.652758
214925.652758
214925.652758
214925.652758
214925.652758
214925.652758
214925.652758
214925.652758
214925.652758
215981.150526
215981.150526
215981.150526
215981.150526
215981.150526
215981.150526
214925.652758
214925.652758
214925.652758
214925.652758
214925.652758
214925.652758
214925.652758
214925.652758
214925.652758
215717.855204
215717.855204
215717.855204
215717.855204
215717.855204
215717.855204
215717.855204
215717.855204
215717.855204
215981.150526
215981.150526
215981.150526
109090.969412
109090.969412
210252.974142
214925.652758
214925.652758
214925.652758
214925.652758
214925.652758
214925.652758
198713.737205
110584.82673
110584.82673
205371.612126
112423.569411
112423.569411
110882.8034
110882.8034
197144.096129
106868.440217
106868.440217
106868.440217
214925.652758
214925.652758
214925.652758
109090.969412
109090.969412
109090.969412
208642.518403
116969.153761
116969.153761
113629.511817
113629.511817
203717.92071
110584.82673
110584.82673
110584.82673
116396.780545
116396.780545
207015.187939
112423.569411
112423.569411
112423.569411
214925.652758
214925.652758
214925.652758
116833.736233
116833.736233
200387.87765
110584.82673
110584.82673
110584.82673
112423.569411
112423.569411
112423.569411
192530.258211
112762.267831
112762.267831
113629.511817
113629.511817
113629.511817
113629.511817
113629.511817
113629.511817
202052.513866
118571.124203
118571.124203
112936.729844
112936.729844
190990.629272
109090.969412
109090.969412
109090.969412
110882.8034
110882.8034
110882.8034
195603.603925
117373.691317
117373.691317
116298.584468
116298.584468
194067.485355
112762.267831
112762.267831
112762.267831
115313.072458
115313.072458
187886.111734
215717.855204
215717.855204
215717.855204
110882.8034
110882.8034
110882.8034
112762.267831
112762.267831
112762.267831
112936.729844
112936.729844
112936.729844
189441.938471
117340.561712
117340.561712
112936.729844
112936.729844
112936.729844
215717.855204
215717.855204
215717.855204
215717.855204
215717.855204
215717.855204
215717.855204
215717.855204
215717.855204
211851.12148
109489.282195
118918.414088
127486.573706
131071.740489
131293.523426
131291.927103
132816.402858
135044.276183
135049.493161
134844.290193
135979.074663
156544.59911
135689.481023
135422.361073
135718.457871
211424.990793
214153.048149
156544.59911
212158.759671
207847.313489
207847.313489
206553.677643
206553.677643
211400.524079
156544.59911
156544.59911
156544.59911
211424.990793
211424.990793
211424.990793
214153.048149
214153.048149
214153.048149
212158.759671
212158.759671
212158.759671
206553.677643
206553.677643
206553.677643
211400.524079
211400.524079
211400.524079
211424.990793
211424.990793
211424.990793
214153.048149
214153.048149
214153.048149
212158.759671
212158.759671
212158.759671
211400.524079
211400.524079
211400.524079
211424.990793
211424.990793
211424.990793
214153.048149
214153.048149
214153.048149
214153.048149
214153.048149
214153.048149
212158.759671
212158.759671
212158.759671
211400.524079
211400.524079
211400.524079
206553.677643
206553.677643
206553.677643
211400.524079
211400.524079
211400.524079
211400.524079
211400.524079
211400.524079
214153.048149
214153.048149
214153.048149
156544.59911
156544.59911
156544.59911
207847.313489
207847.313489
207847.313489
211424.990793
211424.990793
211424.990793
211424.990793
211424.990793
211424.990793
207847.313489
207847.313489
207847.313489
212158.759671
212158.759671
212158.759671
212158.759671