/*--------------------------------*- C++ -*----------------------------------*\
  =========                 |
  \\      /  F ield         | OpenFOAM: The Open Source CFD Toolbox
   \\    /   O peration     | Website:  https://openfoam.org
    \\  /    A nd           | Version:  8
     \\/     M anipulation  |
\*---------------------------------------------------------------------------*/
FoamFile
{
    version     2.0;
    format      ascii;
    class       volScalarField;
    location    "1e-05";
    object      mixAlpha;
}
// * * * * * * * * * * * * * * * * * * * * * * * * * * * * * * * * * * * * * //

dimensions      [1 -1 -1 0 0 0 0];

internalField   nonuniform List<scalar> 
49758
(
1.42013053863e-10
1.42013053921e-10
1.42013054168e-10
1.42013055182e-10
1.42013059361e-10
1.42013076573e-10
1.42013147499e-10
1.42013440563e-10
1.42014652003e-10
1.42019643518e-10
1.42040103699e-10
1.42025280109e-10
1.42037797295e-10
1.4206844563e-10
1.43676722769e-10
1.42192342123e-10
1.65863770781e-10
1.93918248312e-10
1.44509868359e-10
1.42115833974e-10
1.44573611179e-10
1.42334255407e-10
1.4270189133e-10
1.42254490806e-10
1.42484068449e-10
1.83336674514e-10
1.45739383741e-10
1.42046253118e-10
1.42960478372e-10
1.45661695034e-10
1.84527696936e-10
1.42737338823e-10
1.45543729329e-10
1.43469006096e-10
1.75092882592e-10
1.47029435191e-10
1.42259516488e-10
1.41678957554e-10
1.42291242995e-10
1.90324478735e-10
1.44259499522e-10
1.4492239018e-10
1.44621755899e-10
1.43194771654e-10
1.42515595115e-10
1.43010077264e-10
1.44312632336e-10
1.46798122665e-10
1.77255882513e-10
1.44584341356e-10
1.46530296572e-10
1.45087582007e-10
1.42071521007e-10
1.46121867402e-10
1.42629393731e-10
1.43445951855e-10
1.42730038217e-10
1.42353009462e-10
1.44389576947e-10
1.43304068627e-10
1.44340350017e-10
1.88272482744e-10
1.42451616065e-10
1.43719727362e-10
1.4325104279e-10
1.44347682777e-10
1.43357039968e-10
1.44724431095e-10
1.45034640612e-10
1.44461809465e-10
1.44204481798e-10
1.45002864133e-10
1.44262043374e-10
1.70861750204e-10
1.48578124497e-10
1.45859192715e-10
1.43969162024e-10
1.43883236658e-10
1.92961375183e-10
1.43091886703e-10
1.43648752537e-10
1.81376243785e-10
1.45457045101e-10
1.46002695217e-10
1.45932290013e-10
1.45507513071e-10
1.44974468856e-10
1.45425452767e-10
1.8574011305e-10
1.43147298691e-10
1.42839076626e-10
1.45473737949e-10
1.45281292898e-10
1.45104566318e-10
1.47045125838e-10
1.4821985903e-10
1.72750052523e-10
1.46032075959e-10
1.47207541413e-10
1.47061419372e-10
1.43006136355e-10
1.46029628192e-10
1.43667277534e-10
1.41917937201e-10
1.4160034613e-10
1.41352745214e-10
1.42005061563e-10
1.41845382929e-10
1.42118074193e-10
1.91199458775e-10
1.43809674111e-10
1.43704268662e-10
1.44916499919e-10
1.44839648995e-10
1.44668737102e-10
1.45204086339e-10
1.44096854366e-10
1.4330144758e-10
1.46345170401e-10
1.45245765852e-10
1.46142277456e-10
1.78357568812e-10
1.4458472733e-10
1.45733642129e-10
1.46363617279e-10
1.4631848639e-10
1.45701205665e-10
1.45890871094e-10
1.46217460965e-10
1.45956834306e-10
1.4261851355e-10
1.42214642402e-10
1.42028105375e-10
1.44380989479e-10
1.42889611364e-10
1.44179329438e-10
1.43527868715e-10
1.43337451298e-10
1.87284998738e-10
1.4267148671e-10
1.42240141072e-10
1.42152220602e-10
1.42806718259e-10
1.42464154031e-10
1.42982342606e-10
1.45087767772e-10
1.45245297104e-10
1.45123001417e-10
1.44924468109e-10
1.45188053922e-10
1.45150090886e-10
1.44909288338e-10
1.44612231193e-10
1.4488721515e-10
1.42013059563e-10
1.42013068429e-10
1.42013101376e-10
1.4201320761e-10
1.42013553548e-10
1.42014674343e-10
1.4201829326e-10
1.42029882874e-10
1.42066799425e-10
1.42184226254e-10
1.42530132045e-10
1.42918758976e-10
1.4391081028e-10
1.43502981118e-10
1.43087224404e-10
1.43058943189e-10
1.95777415218e-10
2.25576621917e-10
1.42321329928e-10
1.43036616096e-10
1.42450745586e-10
1.43203389241e-10
2.0889402802e-10
1.42192251445e-10
1.42691690235e-10
1.41973307433e-10
1.42094109088e-10
2.11018373574e-10
1.42659326238e-10
1.42127321955e-10
1.42055154137e-10
2.00908140829e-10
1.41424126382e-10
1.41574603104e-10
1.40989772131e-10
1.41065907173e-10
2.19375275395e-10
1.41246143007e-10
1.41369941661e-10
2.02886208097e-10
1.42286258155e-10
1.41836504234e-10
1.41790095189e-10
1.42140888969e-10
1.41975192576e-10
1.42401889815e-10
1.4199744385e-10
1.41581408949e-10
1.41537596307e-10
1.41720709361e-10
1.41644818606e-10
1.42044202497e-10
2.17204524151e-10
1.41130048747e-10
1.41232682899e-10
1.97501807666e-10
1.44329045501e-10
1.44178923206e-10
1.49062188334e-10
1.48609232381e-10
2.23432862899e-10
1.45885048726e-10
1.45670378705e-10
2.0698239139e-10
2.13206613727e-10
1.46810746347e-10
1.46326022266e-10
1.44906609354e-10
1.44637647763e-10
1.99143090601e-10
1.4145883617e-10
1.41097987406e-10
1.41056436654e-10
1.41212371123e-10
1.41142426254e-10
1.41487471667e-10
1.41003772608e-10
1.40663857617e-10
1.40664867207e-10
1.40712291066e-10
1.40679296717e-10
1.41030490534e-10
2.21454245255e-10
1.48197502442e-10
1.47759174643e-10
1.41273434618e-10
1.40889201504e-10
1.40859770613e-10
1.4100532159e-10
1.40929643937e-10
1.41288336343e-10
2.04994411939e-10
1.45406233137e-10
1.45185680064e-10
1.47413673332e-10
1.47134082199e-10
2.1518034923e-10
1.41179300653e-10
1.40813246296e-10
1.40762835779e-10
1.40850259974e-10
1.40842174642e-10
1.41215831212e-10
1.42013125656e-10
1.42013208245e-10
1.42013518959e-10
1.42014411622e-10
1.42017002063e-10
1.4202435683e-10
1.42044747443e-10
1.42099855379e-10
1.42240995029e-10
1.42501219226e-10
1.42685430371e-10
1.42863789077e-10
1.42281881411e-10
1.42173873763e-10
1.41967837004e-10
1.42535691744e-10
1.42167182817e-10
1.42575725247e-10
1.42009351607e-10
1.42012243421e-10
1.42100301401e-10
2.27988087788e-10
2.59607810659e-10
1.41974745069e-10
2.61643046457e-10
2.90254733407e-10
1.41984584944e-10
1.42012309815e-10
1.41966220268e-10
1.42024284189e-10
1.4197086241e-10
1.42001996557e-10
1.41971339064e-10
2.4285028983e-10
1.41955477318e-10
1.41969784337e-10
1.41923673779e-10
1.4193866505e-10
2.4490992529e-10
1.41972420235e-10
1.41930777477e-10
1.41944978402e-10
2.75628197795e-10
1.41880940255e-10
1.41927793378e-10
1.4169023195e-10
1.41849253529e-10
2.77093030074e-10
1.41984850047e-10
1.42022703322e-10
1.42028431905e-10
2.3376187734e-10
1.40893174444e-10
1.40972980225e-10
1.40832924404e-10
1.40837849192e-10
2.53154562994e-10
2.6744935394e-10
1.40807197124e-10
1.40827920597e-10
1.40715109612e-10
1.40755726865e-10
2.83323966559e-10
1.40847373997e-10
1.40884043234e-10
2.35842358565e-10
1.41964338892e-10
1.41444762881e-10
1.41410698194e-10
1.41504190193e-10
1.41472440485e-10
1.41965855487e-10
1.41922697005e-10
1.41354797302e-10
1.41347931729e-10
1.41373281824e-10
1.41354539709e-10
1.41920421611e-10
2.51128436763e-10
1.4083528281e-10
1.4084243454e-10
1.40781216475e-10
1.40802357963e-10
2.69307590749e-10
1.41907127881e-10
1.41295851024e-10
1.41271784096e-10
1.41335846941e-10
1.41318173731e-10
1.41917665182e-10
1.41727993197e-10
1.41072806273e-10
1.41040236518e-10
1.41241405033e-10
1.41098763396e-10
1.41786225694e-10
2.81276431533e-10
1.40771534988e-10
1.40775716782e-10
2.30143060672e-10
1.50027410822e-10
1.4956087101e-10
1.5801005514e-10
1.57458910223e-10
2.57820612702e-10
2.63650759764e-10
1.59309333902e-10
1.5865214702e-10
1.68740172515e-10
1.68019147827e-10
2.88226265971e-10
1.53125124131e-10
1.52550636163e-10
2.40767994735e-10
2.47237040842e-10
1.54306751057e-10
1.5367852796e-10
1.63283212811e-10
1.62554130165e-10
2.73553761171e-10
2.78635788861e-10
1.64421804356e-10
1.63845671095e-10
1.5090275265e-10
1.50480804802e-10
2.32006706146e-10
1.40925156329e-10
1.40645490027e-10
1.40624814387e-10
1.40662372691e-10
1.40655740684e-10
1.40949028781e-10
1.40837554581e-10
1.40795512302e-10
1.40800625302e-10
1.40752736923e-10
1.40782101152e-10
1.40841356017e-10
2.55672479827e-10
1.56800297402e-10
1.56091123241e-10
1.6052540151e-10
1.59888428169e-10
2.65510330952e-10
1.40809942974e-10
1.40833798236e-10
1.40853855317e-10
1.40818520068e-10
1.40830125977e-10
1.40816577071e-10
1.4072200394e-10
1.41470105452e-10
1.41632897401e-10
1.41110855491e-10
1.41272090286e-10
1.40741637951e-10
2.85956701704e-10
1.67188737537e-10
1.66246070558e-10
1.40857753149e-10
1.40641556571e-10
1.40661762578e-10
1.40630723522e-10
1.40635469485e-10
1.40868785096e-10
2.38276498839e-10
1.51969098803e-10
1.51384886181e-10
1.55507101383e-10
1.5494486272e-10
2.49354165461e-10
1.40839911093e-10
1.40734694634e-10
1.40742998197e-10
1.40679440185e-10
1.40709624933e-10
1.40837463925e-10
1.40790204494e-10
1.4090434508e-10
1.40932539961e-10
1.40877128026e-10
1.40885626812e-10
1.40793949565e-10
2.71193855055e-10
1.61800050031e-10
1.61174472672e-10
1.65562293724e-10
1.65036428385e-10
2.79987893754e-10
1.40781519376e-10
1.40985136174e-10
1.410220481e-10
1.40937233243e-10
1.40950733126e-10
1.40767699393e-10
1.41399959376e-10
1.41393176621e-10
1.41040041291e-10
1.41050034463e-10
1.41385716571e-10
1.41376131446e-10
1.41349228323e-10
1.41307582608e-10
1.41158306748e-10
1.42013542868e-10
1.42013939186e-10
1.42015536743e-10
1.42019630055e-10
1.42030246196e-10
1.42056808994e-10
1.42120405814e-10
1.42259584117e-10
1.4226178184e-10
1.42372437091e-10
1.42424470019e-10
1.4241525507e-10
1.42500084814e-10
1.42406182647e-10
1.42482971111e-10
1.42193882601e-10
1.42041801727e-10
1.41990330567e-10
1.42015883121e-10
1.42037521844e-10
1.42039087004e-10
2.92053233669e-10
3.20727327099e-10
1.42064764858e-10
1.42045287638e-10
1.42074330396e-10
1.42001067715e-10
3.07603890167e-10
1.4174556781e-10
1.41673926273e-10
1.41692653678e-10
1.41745582593e-10
3.09398767389e-10
1.42031523041e-10
1.42118442753e-10
1.42152044629e-10
2.98387819378e-10
1.40732695277e-10
1.40724753105e-10
1.40540047903e-10
1.4061814089e-10
3.16391576839e-10
1.40677816947e-10
1.40725373479e-10
3.00331708649e-10
1.4171735111e-10
1.41071709438e-10
1.41021368482e-10
1.41050082106e-10
1.41078528606e-10
1.41688697836e-10
1.41719216726e-10
1.40940428572e-10
1.40876858054e-10
1.40998726505e-10
1.40951439238e-10
1.41740990969e-10
3.1456699588e-10
1.40632973605e-10
1.40661354989e-10
2.94083727851e-10
1.70257096794e-10
1.6945548765e-10
1.81383680105e-10
1.80640852238e-10
3.19108408227e-10
1.75385161449e-10
1.74414587404e-10
3.05117320294e-10
3.10934028069e-10
1.76895145818e-10
1.76181334757e-10
1.71854377158e-10
1.71063135053e-10
2.96284958177e-10
1.40737248325e-10
1.42178967019e-10
1.42373041015e-10
1.41797430558e-10
1.41995146301e-10
1.4073277639e-10
1.40569550313e-10
1.44721879885e-10
1.44931175031e-10
1.44313580885e-10
1.44540924602e-10
1.40597050149e-10
3.17809882299e-10
1.79998157045e-10
1.79290132317e-10
1.40692810379e-10
1.4296813677e-10
1.43210981976e-10
1.42561810451e-10
1.42756552801e-10
1.40711830699e-10
3.02505180258e-10
1.73471462173e-10
1.72644819758e-10
1.78469549898e-10
1.77621744438e-10
3.12603490437e-10
1.40638702783e-10
1.43844215807e-10
1.44077916063e-10
1.43428310959e-10
1.43648290832e-10
1.40642485798e-10
1.41407740849e-10
1.41420281201e-10
1.40960723046e-10
1.40921550746e-10
1.41374229258e-10
1.41389960476e-10
1.41340756447e-10
1.41356589425e-10
1.40899423959e-10
1.40973351358e-10
1.4143233963e-10
1.41448638132e-10
1.4146609342e-10
1.41473284963e-10
1.41039184222e-10
1.4105997149e-10
1.41477149837e-10
1.41469351042e-10
1.41459025165e-10
1.41442656126e-10
1.41077800712e-10
1.41062413555e-10
1.41422288802e-10
1.41408969177e-10
1.42015380531e-10
1.4201660935e-10
1.42024097014e-10
1.42022454998e-10
1.42040692864e-10
1.42035685536e-10
1.42073549626e-10
1.42066537331e-10
1.42142109734e-10
1.4213395994e-10
1.4225165596e-10
1.42338803471e-10
1.42367178966e-10
1.42358815412e-10
1.42235673783e-10
1.42078876898e-10
1.42050729864e-10
1.42082497579e-10
1.42065936619e-10
1.42075808757e-10
1.42071751346e-10
3.22918631803e-10
3.46653278985e-10
1.42066288589e-10
1.42153236504e-10
1.42147897373e-10
1.42078648167e-10
3.35938339892e-10
1.4162605677e-10
1.41669659114e-10
1.41560578392e-10
1.4161260618e-10
3.37416652708e-10
1.42069584928e-10
1.42143088304e-10
1.42148963131e-10
3.28914053922e-10
1.40518680176e-10
1.40538922519e-10
1.40488725082e-10
1.40517515431e-10
3.42811397782e-10
1.40529182317e-10
1.4052223781e-10
3.30651451429e-10
1.41634462952e-10
1.40816920142e-10
1.40801815782e-10
1.40861825048e-10
1.40820957078e-10
1.41642874883e-10
1.4158082717e-10
1.4075965976e-10
1.40709222619e-10
1.40792126673e-10
1.40767820568e-10
1.41598432489e-10
3.41537884835e-10
1.40517897646e-10
1.40524134744e-10
3.25268676331e-10
1.83303534414e-10
1.82323891004e-10
1.94502735645e-10
1.93680750931e-10
3.45177779595e-10
1.88548445765e-10
1.87739349706e-10
3.34369871963e-10
3.38785730527e-10
1.90015805856e-10
1.89300157237e-10
1.85008361898e-10
1.84187663896e-10
3.27267773332e-10
1.40526956892e-10
1.45743446628e-10
1.46003713648e-10
1.452030079e-10
1.45479475064e-10
1.40534824732e-10
1.40506253108e-10
1.48933252243e-10
1.49207312256e-10
1.48427779918e-10
1.48679059898e-10
1.40512823129e-10
3.4395100795e-10
1.92960706966e-10
1.92261280185e-10
1.4053067891e-10
1.46904093717e-10
1.47174216161e-10
1.46285288014e-10
1.46597448086e-10
1.4052818485e-10
3.32604865019e-10
1.86825289207e-10
1.85867904711e-10
1.91513458772e-10
1.90746054691e-10
3.40145836182e-10
1.40514998715e-10
1.47896505415e-10
1.48160478647e-10
1.47419772319e-10
1.47652530906e-10
1.40516765453e-10
1.4084861552e-10
1.41313848288e-10
1.41325838508e-10
1.41285522862e-10
1.41298334388e-10
1.40834941704e-10
1.40813597766e-10
1.41276945566e-10
1.41281363531e-10
1.41266113051e-10
1.4127248759e-10
1.40809294221e-10
1.40781515828e-10
1.41247860097e-10
1.41257190593e-10
1.41229718867e-10
1.41238620444e-10
1.40774420013e-10
1.40747538596e-10
1.41205302068e-10
1.41218029322e-10
1.41170112939e-10
1.41188180757e-10
1.40731662284e-10
1.42021799025e-10
1.42040410499e-10
1.42041548431e-10
1.42080002363e-10
1.42145809091e-10
1.42241490042e-10
1.42311601895e-10
1.42336624043e-10
1.42331933121e-10
1.42249735712e-10
1.42124666135e-10
1.42071023811e-10
1.42078397648e-10
1.42062631087e-10
1.42069925957e-10
1.42055232748e-10
1.42073641397e-10
3.48301695944e-10
3.6606502435e-10
1.4203835446e-10
1.42148680052e-10
1.42145154374e-10
1.42054054732e-10
3.57136956901e-10
1.41488619139e-10
1.41539978744e-10
1.41446566125e-10
1.41475261825e-10
3.58547570567e-10
1.42048190622e-10
1.42149060436e-10
1.42153476382e-10
3.52111414898e-10
1.40490490196e-10
1.40481303458e-10
1.40555156091e-10
1.40535613853e-10
3.63067298095e-10
1.40524749923e-10
1.40502590009e-10
3.5307330073e-10
1.41501445731e-10
1.40671261721e-10
1.40657660382e-10
1.40690214883e-10
1.40668644384e-10
1.41520965403e-10
1.414566336e-10
1.4061710855e-10
1.40603830469e-10
1.40642295647e-10
1.40617259409e-10
1.41466590875e-10
3.61868853505e-10
1.40519261902e-10
1.40520789907e-10
3.49881279888e-10
1.96277564409e-10
1.95407218337e-10
2.06934040479e-10
2.06202332387e-10
3.65114724751e-10
2.00918323823e-10
1.99981510252e-10
3.55637540617e-10
3.5972513661e-10
2.02494934161e-10
2.01771517112e-10
1.97682811649e-10
1.9704064624e-10
3.51142379921e-10
1.40485944253e-10
1.50075893436e-10
1.50322287476e-10
1.49500069589e-10
1.49796715219e-10
1.40483558874e-10
1.40553495222e-10
1.53565353576e-10
1.53857373675e-10
1.529532342e-10
1.53276021109e-10
1.40549977737e-10
3.64194647749e-10
2.05498273842e-10
2.04699625884e-10
1.40522452618e-10
1.51203021548e-10
1.51529920904e-10
1.50573357337e-10
1.50866859942e-10
1.40516119733e-10
3.54229214297e-10
1.99074408186e-10
1.98318861868e-10
2.03879860055e-10
2.03164353391e-10
3.6078591159e-10
1.40512872834e-10
1.52350316439e-10
1.5262755555e-10
1.51833584548e-10
1.52096215221e-10
1.40514958932e-10
1.40677958433e-10
1.41139443593e-10
1.41150963297e-10
1.41118897211e-10
1.41126796523e-10
1.40671352435e-10
1.40670022046e-10
1.41107799856e-10
1.41113967953e-10
1.41090621051e-10
1.41099021831e-10
1.40664401827e-10
1.40625496331e-10
1.41062348014e-10
1.41075535692e-10
1.41049109179e-10
1.41054868002e-10
1.40617990326e-10
1.40615928102e-10
1.41037881613e-10
1.41043365619e-10
1.41021083586e-10
1.41029439361e-10
1.40610465068e-10
1.42083219853e-10
1.42076762214e-10
1.42149566288e-10
1.42233574893e-10
1.4229412447e-10
1.42313299782e-10
1.42311892579e-10
1.42253584516e-10
1.42145110044e-10
1.42084745325e-10
1.42064887779e-10
1.4206513092e-10
1.42039601433e-10
1.42036017752e-10
1.42019788831e-10
1.42055622242e-10
3.67179280351e-10
3.80621592824e-10
1.42034950341e-10
1.42160919012e-10
1.42158093034e-10
1.42035537936e-10
3.74145509086e-10
1.41407488096e-10
1.41435686063e-10
1.41359291904e-10
1.4138637426e-10
3.74985600395e-10
1.42037529903e-10
1.42160595654e-10
1.42155644621e-10
3.69893999588e-10
1.40563181321e-10
1.40560904841e-10
1.40785550287e-10
1.40646414985e-10
3.77873738395e-10
1.40633223362e-10
1.4056877646e-10
3.7088039679e-10
1.41420482829e-10
1.40574233461e-10
1.40586052228e-10
1.40597698466e-10
1.40573443183e-10
1.4142870522e-10
1.41368335577e-10
1.40539762474e-10
1.4053169889e-10
1.40580012768e-10
1.40543773822e-10
1.413774168e-10
3.771209419e-10
1.40638373076e-10
1.40637814694e-10
3.68234308436e-10
2.08555111975e-10
2.07762777188e-10
2.18592816451e-10
2.17801627692e-10
3.79690837537e-10
2.1304071818e-10
2.1224368148e-10
3.73155195633e-10
3.75700349235e-10
2.14316656372e-10
2.13721059103e-10
2.09845464072e-10
2.09232815349e-10
3.69103701111e-10
1.40562946966e-10
1.54782101308e-10
1.55041243195e-10
1.54185181445e-10
1.54502348623e-10
1.40562392844e-10
1.40720190704e-10
1.58482356979e-10
1.58839069972e-10
1.57824329544e-10
1.58135185043e-10
1.40654176463e-10
3.78724818052e-10
2.17012226145e-10
2.16290213713e-10
1.4062040918e-10
1.56036165898e-10
1.563752384e-10
1.55320464899e-10
1.5565519164e-10
1.40592488399e-10
3.71992382674e-10
2.11350785732e-10
2.1054372101e-10
2.15601902129e-10
2.14954864355e-10
3.7641359139e-10
1.40631567643e-10
1.5721279429e-10
1.57508984777e-10
1.5666850279e-10
1.56925728408e-10
1.40634909614e-10
1.40588254765e-10
1.41003909264e-10
1.41012265375e-10
1.40989599073e-10
1.40994604051e-10
1.4057697388e-10
1.40584813742e-10
1.4098989638e-10
1.40986930034e-10
1.40975275105e-10
1.4098535385e-10
1.40589149531e-10
1.405666103e-10
1.40947892917e-10
1.40964053036e-10
1.40927407574e-10
1.40933684876e-10
1.40550308128e-10
1.40537675432e-10
1.40914296845e-10
1.4091898305e-10
1.40900234615e-10
1.40908680349e-10
1.40533546105e-10
1.42165708095e-10
1.42139948415e-10
1.422241301e-10
1.42272758258e-10
1.42293942586e-10
1.42295227532e-10
1.42253973359e-10
1.42162161427e-10
1.42094527837e-10
1.42074128854e-10
1.42059375048e-10
1.42045136844e-10
1.42035846577e-10
1.42021516581e-10
1.42003471648e-10
1.41982402399e-10
1.42032757665e-10
3.81408970109e-10
3.92711104122e-10
1.42015202825e-10
3.93645116017e-10
4.05469930597e-10
1.42033665347e-10
1.42146844476e-10
1.42128175614e-10
1.42028488102e-10
1.42084844964e-10
1.42069334413e-10
1.42022255024e-10
3.87440438961e-10
1.41297845516e-10
1.41342160086e-10
1.41264060613e-10
1.41288673483e-10
3.88632709795e-10
1.42024473233e-10
1.42110402035e-10
1.42096150765e-10
3.99228363371e-10
1.41240125359e-10
1.41259369643e-10
1.41201272514e-10
1.41230650375e-10
3.99987119986e-10
1.4203055196e-10
1.42050970303e-10
1.42028919217e-10
3.832166884e-10
1.41163081239e-10
1.40879638887e-10
1.42534443535e-10
1.42220702049e-10
3.91129514053e-10
3.9704991373e-10
1.43110122355e-10
1.42662164115e-10
1.44720405898e-10
1.44329613917e-10
4.04295758441e-10
1.4164257537e-10
1.41268845051e-10
3.84000835242e-10
1.40523812605e-10
1.40511275288e-10
1.4131839599e-10
1.4127156129e-10
1.40545081485e-10
1.40536693261e-10
3.90716413619e-10
1.4210340619e-10
1.41771969789e-10
1.43562555411e-10
1.43232031469e-10
3.97714244763e-10
1.41248834434e-10
1.40561847762e-10
1.40543397751e-10
1.40539139121e-10
1.40562783547e-10
1.41257242672e-10
1.41215201489e-10
1.40568768717e-10
1.40569470351e-10
1.40541863108e-10
1.40556415099e-10
1.41225280122e-10
4.03391830519e-10
1.44164765995e-10
1.43700553054e-10
3.82042988754e-10
2.19860036032e-10
2.1927684117e-10
2.293856454e-10
2.28779175063e-10
3.92060096372e-10
3.94822151446e-10
2.31008838275e-10
2.3012674372e-10
2.40510582745e-10
2.40081296318e-10
4.05276272061e-10
2.24399197444e-10
2.23491911359e-10
3.86196938522e-10
3.89566967788e-10
2.25915523743e-10
2.25229922129e-10
2.34979587673e-10
2.34397803737e-10
3.98678507065e-10
4.00951413686e-10
2.36464579355e-10
2.35679905966e-10
2.20994130095e-10
2.20403153388e-10
3.82607397561e-10
1.59165697317e-10
1.59468157329e-10
1.40977010644e-10
1.42427060207e-10
1.64012265194e-10
1.64327945099e-10
1.63423304826e-10
1.6372295609e-10
1.42324958651e-10
3.91551404763e-10
2.28246746642e-10
2.27714592235e-10
2.32740791581e-10
2.3195879256e-10
3.9609385671e-10
1.42961524851e-10
1.65598308172e-10
1.66008883241e-10
1.64703583168e-10
1.65137159409e-10
1.42803730768e-10
1.44602516528e-10
1.69921775233e-10
1.70197696203e-10
1.69274559732e-10
1.69614417902e-10
1.4446942466e-10
4.05065096929e-10
2.39567623208e-10
2.38952424112e-10
3.85022305706e-10
2.22568392165e-10
2.21707881253e-10
2.27136095672e-10
2.26531051414e-10
3.9024214436e-10
1.43443817884e-10
1.66897381237e-10
1.67214166571e-10
1.66330550458e-10
1.66613200692e-10
1.43338126958e-10
3.98206482445e-10
2.33870726894e-10
2.33347025749e-10
2.38212012893e-10
2.37311004169e-10
4.02122932846e-10
1.44005815676e-10
1.68442866645e-10
1.68878768839e-10
1.67591370321e-10
1.68012214559e-10
1.43852141064e-10
1.41068727507e-10
1.59759220797e-10
1.60068442667e-10
1.41305702349e-10
1.4051523123e-10
1.40531784067e-10
1.60428668076e-10
1.60844875591e-10
1.4138895957e-10
1.41516094786e-10
1.61281215131e-10
1.61699768251e-10
1.40546226832e-10
1.40545167774e-10
1.41280577342e-10
1.62096429668e-10
1.62438805131e-10
1.41887807608e-10
1.41991274384e-10
1.62760121799e-10
1.63095480113e-10
1.40516255808e-10
1.40864923717e-10
1.40883883699e-10
1.40841076051e-10
1.40849073346e-10
1.40511159949e-10
1.4052089203e-10
1.4084143439e-10
1.40840555497e-10
1.40841473001e-10
1.40841127366e-10
1.40525849256e-10
1.40549506726e-10
1.40844341837e-10
1.40845465085e-10
1.40833429396e-10
1.4083973705e-10
1.40546279924e-10
1.40541352057e-10
1.40823364678e-10
1.40828885599e-10
1.40811725678e-10
1.40815634971e-10
1.40536252175e-10
1.40544724503e-10
1.40811385338e-10
1.40809508596e-10
1.40817887031e-10
1.40818148657e-10
1.40557795013e-10
1.40553491098e-10
1.40804572504e-10
1.408139118e-10
1.40790982104e-10
1.40795142122e-10
1.40541958967e-10
1.40541212309e-10
1.40782845487e-10
1.40785530911e-10
1.40787489987e-10
1.40782160447e-10
1.40543296603e-10
1.40572048298e-10
1.40785670999e-10
1.40788656566e-10
1.40768832012e-10
1.4078007064e-10
1.40573940004e-10
1.42356658118e-10
1.42217398253e-10
1.42271941492e-10
1.42283700026e-10
1.42282620139e-10
1.4225307188e-10
1.42176023272e-10
1.42106235181e-10
1.42077775212e-10
1.420702994e-10
1.42058004582e-10
1.42064927481e-10
1.42054458033e-10
1.42049954948e-10
1.42040073895e-10
1.42019827485e-10
1.42004393466e-10
1.4204210896e-10
1.4196144686e-10
1.41946153893e-10
1.42006480924e-10
1.41940541677e-10
1.41935212307e-10
1.42002583713e-10
4.05650529321e-10
4.17187562851e-10
1.4205216377e-10
1.42003881689e-10
1.41977063189e-10
1.42043485679e-10
4.10966169413e-10
1.41171014827e-10
1.41189816688e-10
1.41130935842e-10
1.41156729036e-10
4.1145455597e-10
1.42049937711e-10
1.41943383831e-10
1.41906383082e-10
4.07289291416e-10
1.45247579171e-10
1.44836602448e-10
1.47133035157e-10
1.46612461246e-10
4.14104694493e-10
1.45857635507e-10
1.45410195387e-10
4.08498335313e-10
1.41179088709e-10
1.40549868714e-10
1.40570684076e-10
1.40557697714e-10
1.40549577056e-10
1.41183978197e-10
1.4113751532e-10
1.40590468678e-10
1.40575505696e-10
1.40573888151e-10
1.4058838313e-10
1.41147369442e-10
4.13207386244e-10
1.46444642743e-10
1.45982580478e-10
4.05871477848e-10
2.41423137175e-10
2.40942702471e-10
2.51089230029e-10
2.50341155593e-10
4.16371206214e-10
2.45612223727e-10
2.4504771981e-10
4.10381414293e-10
4.11962688086e-10
2.46719305568e-10
2.46147056139e-10
2.42719535199e-10
2.42020292964e-10
4.06402642255e-10
1.45099610027e-10
1.71136378126e-10
1.71534214278e-10
1.70474581103e-10
1.70777870472e-10
1.44959654045e-10
1.46961855401e-10
1.75736090023e-10
1.76156263871e-10
1.74829450081e-10
1.75274396921e-10
1.46787110314e-10
4.15270824655e-10
2.49471057174e-10
2.48657348187e-10
1.45726028241e-10
1.72748515072e-10
1.73049065187e-10
1.71975783767e-10
1.72402413992e-10
1.45577643674e-10
4.09587932284e-10
2.44389554417e-10
2.43574661383e-10
2.47970421421e-10
2.47338275915e-10
4.12520353104e-10
1.46280159171e-10
1.74039764431e-10
1.74427438576e-10
1.73340736148e-10
1.73666473382e-10
1.46121318484e-10
1.4055625113e-10
1.40753727497e-10
1.40757888835e-10
1.407439922e-10
1.40747554059e-10
1.40553007914e-10
1.40558968734e-10
1.40749871493e-10
1.40745891621e-10
1.40745549666e-10
1.4074927067e-10
1.40566073134e-10
1.40578069503e-10
1.40738995348e-10
1.4074200565e-10
1.4073248697e-10
1.40736047562e-10
1.40585795005e-10
1.40587400337e-10
1.40718878783e-10
1.40727769519e-10
1.40708571432e-10
1.40714075448e-10
1.40578668721e-10
1.42609297102e-10
1.42256927776e-10
1.42286738469e-10
1.4227957259e-10
1.42280226058e-10
1.42259438525e-10
1.42254248672e-10
1.42203347823e-10
1.42187940803e-10
1.42129754861e-10
1.42115733221e-10
1.42080029662e-10
1.42057650024e-10
1.42048201909e-10
1.42046138362e-10
1.42034813294e-10
1.42000924031e-10
1.42059135631e-10
1.41930092017e-10
1.41925842771e-10
1.41998371741e-10
4.17798640643e-10
4.24745167196e-10
1.42071780576e-10
1.41868041381e-10
1.41819522354e-10
1.42061134397e-10
4.20986102978e-10
1.41093734558e-10
1.41122670826e-10
1.41040828766e-10
1.4107969616e-10
4.21992627386e-10
1.42065604001e-10
1.41776169324e-10
1.41728215421e-10
4.18717955851e-10
1.47689366387e-10
1.47301137181e-10
1.49502364991e-10
1.49090630191e-10
4.24035839962e-10
1.48333524982e-10
1.47812405547e-10
4.1906293722e-10
1.41109418316e-10
1.40614507924e-10
1.40619908984e-10
1.40570567104e-10
1.40586152318e-10
1.41119880575e-10
1.41053681209e-10
1.40623811046e-10
1.40641933332e-10
1.40606532795e-10
1.40613044534e-10
1.4106884696e-10
4.2373744499e-10
1.48979822178e-10
1.48511141164e-10
4.18133757035e-10
2.52274642596e-10
2.51742287584e-10
2.59584857987e-10
2.59084440534e-10
4.24477943834e-10
2.55303437562e-10
2.54567420621e-10
4.20167322637e-10
4.23004132195e-10
2.5688202315e-10
2.56120663553e-10
2.53123832315e-10
2.52728179312e-10
4.1839260883e-10
1.47578255027e-10
1.77145511652e-10
1.77389567406e-10
1.76542694691e-10
1.76863176174e-10
1.47444975136e-10
1.49336838628e-10
1.81022154121e-10
1.81403536182e-10
1.80491307239e-10
1.80716472712e-10
1.49198381576e-10
4.24302971186e-10
2.5864056565e-10
2.58265306293e-10
1.48157565112e-10
1.78385837476e-10
1.78835007347e-10
1.77644675267e-10
1.77970932182e-10
1.47976282384e-10
4.19516123564e-10
2.53969978954e-10
2.53520273601e-10
2.57899078491e-10
2.57473534455e-10
4.2353962176e-10
1.48847650388e-10
1.80039476346e-10
1.80284483102e-10
1.79281121478e-10
1.79696979928e-10
1.4868423885e-10
1.40570253231e-10
1.40701484588e-10
1.40704132164e-10
1.4071024678e-10
1.40701393116e-10
1.40572852295e-10
1.40628852734e-10
1.40713481715e-10
1.40716110034e-10
1.40692826632e-10
1.40706324094e-10
1.40631042424e-10
1.4060382527e-10
1.40679002703e-10
1.4068571329e-10
1.40676205498e-10
1.40677297217e-10
1.40606460221e-10
1.40637921131e-10
1.40675691684e-10
1.4067621207e-10
1.40661465628e-10
1.4067419074e-10
1.4064296777e-10
1.42312427372e-10
1.42277839482e-10
1.4326857121e-10
1.42916059748e-10
1.42448779177e-10
1.42401330791e-10
1.4406538984e-10
1.48048951509e-10
1.42256577982e-10
1.42291265817e-10
1.42265199684e-10
1.4221398372e-10
1.42146817695e-10
1.42096471327e-10
1.4206425406e-10
1.4205134593e-10
1.42044775814e-10
1.42043300247e-10
1.42035209689e-10
1.41995643338e-10
1.42077662988e-10
1.4192395624e-10
1.41927544979e-10
1.41995937463e-10
4.25270878733e-10
4.34652451519e-10
1.42096263192e-10
1.41682157532e-10
1.41622360669e-10
1.42085802067e-10
4.30057497693e-10
1.41018847608e-10
1.41032969064e-10
1.4095944641e-10
1.40986868978e-10
4.30137088604e-10
1.42088847482e-10
1.41566565273e-10
1.41489621763e-10
4.28195330878e-10
1.50218116063e-10
1.49687711179e-10
1.52233501379e-10
1.51723872491e-10
4.31864234956e-10
1.50849299791e-10
1.50394467528e-10
4.29142893582e-10
1.41038450561e-10
1.40628161526e-10
1.40664750507e-10
1.40630588934e-10
1.40611095566e-10
1.41038937416e-10
1.40974969238e-10
1.40661963221e-10
1.40698204321e-10
1.40658724783e-10
1.4065199146e-10
1.4098135562e-10
4.30992970401e-10
1.51520474396e-10
1.51003977273e-10
4.26174694621e-10
2.60874947759e-10
2.60169285995e-10
2.68917134657e-10
2.68400679599e-10
4.33919329039e-10
2.6448444714e-10
2.64032440567e-10
4.29797732223e-10
4.30221597689e-10
2.65389137978e-10
2.64940150503e-10
2.62381703642e-10
2.61678515602e-10
4.27276842891e-10
1.50049072727e-10
1.827238785e-10
1.83121659903e-10
1.81832418786e-10
1.82270290317e-10
1.4986553654e-10
1.52109274685e-10
1.87051038241e-10
1.87317036858e-10
1.86236699247e-10
1.86715989154e-10
1.51951021214e-10
4.3299597453e-10
2.67808831759e-10
2.6705994203e-10
1.50702462676e-10
1.84062534253e-10
1.84368983534e-10
1.83464895424e-10
1.83767527566e-10
1.50551833225e-10
4.29617526789e-10
2.63548459917e-10
2.6300728561e-10
2.66338038186e-10
2.65851319989e-10
4.30459158813e-10
1.51341100979e-10
1.85442040047e-10
1.85813660298e-10
1.84709839941e-10
1.85072793296e-10
1.51163393704e-10
1.406116845e-10
1.40638425049e-10
1.406488704e-10
1.40647129328e-10
1.40636040643e-10
1.40607941006e-10
1.40645760549e-10
1.40666910867e-10
1.40664782631e-10
1.40661620593e-10
1.4066679745e-10
1.40658092713e-10
1.40653903687e-10
1.40622921596e-10
1.40638814428e-10
1.40618318186e-10
1.40619838961e-10
1.40654492642e-10
1.40688057599e-10
1.40642485558e-10
1.40630165415e-10
1.40635728961e-10
1.40642857687e-10
1.40693359283e-10
1.42305386222e-10
1.42302092924e-10
1.49690189376e-10
1.48948344328e-10
1.42275144928e-10
1.42266759318e-10
1.49373179481e-10
1.42144459976e-10
1.42135715812e-10
1.4225803651e-10
1.42284926839e-10
1.47947213606e-10
1.42310557322e-10
1.42281226208e-10
1.48821960978e-10
1.42274344562e-10
1.42288517664e-10