/*--------------------------------*- C++ -*----------------------------------*\
  =========                 |
  \\      /  F ield         | OpenFOAM: The Open Source CFD Toolbox
   \\    /   O peration     | Website:  https://openfoam.org
    \\  /    A nd           | Version:  8
     \\/     M anipulation  |
\*---------------------------------------------------------------------------*/
FoamFile
{
    version     2.0;
    format      ascii;
    class       volScalarField;
    location    "1e-05";
    object      mixMu;
}
// * * * * * * * * * * * * * * * * * * * * * * * * * * * * * * * * * * * * * //

dimensions      [1 -1 -1 0 0 0 0];

internalField   nonuniform List<scalar> 
49758
(
9.94763049068e-07
9.94763049489e-07
9.94763051302e-07
9.94763058741e-07
9.94763089373e-07
9.94763215567e-07
9.9476373556e-07
9.94765884161e-07
9.94774765823e-07
9.94811360649e-07
9.94961355503e-07
9.94852683978e-07
9.94944447676e-07
9.95169112931e-07
1.00692312585e-06
9.96077068991e-07
1.13483117626e-06
1.21551692156e-06
1.01298523761e-06
9.95516440213e-07
1.01344829652e-06
9.97116548297e-07
9.99806869367e-07
9.96532358775e-07
9.98213302706e-07
1.1796232182e-06
1.021897357e-06
9.95006435053e-07
1.00157157629e-06
1.02133323716e-06
1.18380787431e-06
1.00006607843e-06
1.02048278556e-06
1.00539548933e-06
1.15653729127e-06
1.03120958599e-06
9.96540319092e-07
9.92306291506e-07
9.96796839492e-07
1.20220386059e-06
1.01116541075e-06
1.01598013661e-06
1.01379797345e-06
1.00340804323e-06
9.98444027512e-07
1.00205935351e-06
1.01154992296e-06
1.02954300715e-06
1.160068956e-06
1.01352595275e-06
1.02759930318e-06
1.01717810064e-06
9.95189678427e-07
1.02462686925e-06
9.99276627414e-07
1.00515907233e-06
1.00001252662e-06
9.97253688487e-07
1.01211099625e-06
1.00420560591e-06
1.01170845799e-06
1.19547754451e-06
9.97971462399e-07
1.0072338447e-06
1.00381877058e-06
1.011806567e-06
1.00459222249e-06
1.01453834193e-06
1.01679431252e-06
1.0126360447e-06
1.01076529675e-06
1.01656386394e-06
1.01117963086e-06
1.15313772759e-06
1.04233293669e-06
1.02276508038e-06
1.00035519348e-06
1.00068770536e-06
1.21171123333e-06
1.00212796227e-06
1.00632788767e-06
1.17213233744e-06
1.01985480226e-06
1.02379230837e-06
1.02327881212e-06
1.02018965289e-06
1.01631094636e-06
1.01962643341e-06
1.18776284318e-06
1.00049698178e-06
9.99656085188e-07
1.01997607339e-06
1.01858219688e-06
1.01730133462e-06
1.03132257802e-06
1.0397649141e-06
1.15492721627e-06
1.02401477577e-06
1.03249181285e-06
1.03143990514e-06
1.00203056601e-06
1.02399708723e-06
1.00685429763e-06
9.94060175066e-07
9.91671454193e-07
9.89845401414e-07
9.94650117282e-07
9.93473316813e-07
9.95527715043e-07
1.20552084705e-06
1.0011827815e-06
1.00128844548e-06
1.01593740436e-06
1.0153797898e-06
1.01413913922e-06
1.01802152389e-06
1.00996281554e-06
1.00416075333e-06
1.02627225474e-06
1.0183165092e-06
1.02481056653e-06
1.16188472301e-06
1.01334497535e-06
1.02174247478e-06
1.0264092084e-06
1.02604525906e-06
1.02159916829e-06
1.02292388675e-06
1.025306358e-06
1.02347092396e-06
9.99183860636e-07
9.96240178584e-07
9.9487339642e-07
1.01203284379e-06
1.0011760336e-06
1.01053252348e-06
1.00114647536e-06
1.00083877575e-06
1.19263041662e-06
9.9958069113e-07
9.96380473122e-07
9.95731695821e-07
1.00053390565e-06
9.98022762742e-07
1.00185349589e-06
1.01717954203e-06
1.01832137482e-06
1.01743396134e-06
1.01599521121e-06
1.01790652794e-06
1.01763135983e-06
1.01588508507e-06
1.0137287999e-06
1.01572493802e-06
9.94763090856e-07
9.94763155858e-07
9.94763397413e-07
9.94764176263e-07
9.94766712516e-07
9.94774929606e-07
9.94801461423e-07
9.9488642742e-07
9.95157046474e-07
9.96017605885e-07
9.98550405135e-07
1.00139218657e-06
1.00862822208e-06
1.00565665939e-06
1.00262281366e-06
1.00241627244e-06
1.22282849774e-06
1.34683479503e-06
9.97021895215e-07
1.00224350915e-06
9.97951581147e-07
1.0034709491e-06
1.27622384806e-06
9.95727438764e-07
9.99555193703e-07
9.93908227381e-07
9.94952276017e-07
1.28525026547e-06
9.99495568878e-07
9.95565043294e-07
9.95019708183e-07
1.24312945867e-06
9.90433486682e-07
9.9153987279e-07
9.8723279574e-07
9.8779533838e-07
1.32047796997e-06
9.89123607385e-07
9.90035049428e-07
1.2511351456e-06
9.96476419447e-07
9.93468011332e-07
9.9312747747e-07
9.95699843485e-07
9.94485220802e-07
9.97382195143e-07
9.94137267095e-07
9.915955482e-07
9.91273770605e-07
9.92618275528e-07
9.92061158026e-07
9.94524139624e-07
1.31134494959e-06
9.88267598195e-07
9.89024295274e-07
1.22966251961e-06
1.00122932842e-06
1.00087332698e-06
1.01883137765e-06
1.016980657e-06
1.33779076195e-06
1.00628037673e-06
1.00552023104e-06
1.26819031047e-06
1.29462598984e-06
1.01008074399e-06
1.00801740468e-06
1.0030260904e-06
1.00210541754e-06
1.23610653593e-06
9.9068893514e-07
9.87951345003e-07
9.87638786359e-07
9.88809410845e-07
9.88284876055e-07
9.90899516535e-07
9.87336839964e-07
9.84655909192e-07
9.84644885708e-07
9.85032731655e-07
9.8477874137e-07
9.87533931347e-07
1.32937059433e-06
1.01533450556e-06
1.01360459688e-06
9.89324699995e-07
9.86388868243e-07
9.86160243872e-07
9.87258994854e-07
9.86690886649e-07
9.89434663256e-07
1.25982382796e-06
1.00465926215e-06
1.00393198868e-06
1.01227730463e-06
1.01127285395e-06
1.30294023323e-06
9.88630605499e-07
9.85790376264e-07
9.85410069219e-07
9.86081974835e-07
9.8601781302e-07
9.88899722123e-07
9.94763575418e-07
9.94764180924e-07
9.94766458925e-07
9.94773003478e-07
9.94791995153e-07
9.94845915239e-07
9.94995397494e-07
9.9539933387e-07
9.96433500739e-07
9.9833882252e-07
9.99686485257e-07
1.0009904704e-06
9.96732985388e-07
9.95941752906e-07
9.94431513163e-07
9.98591088411e-07
9.95892726639e-07
9.98884008097e-07
9.94735905728e-07
9.94757107291e-07
9.95402602839e-07
1.35706757606e-06
1.48934607478e-06
9.94482167584e-07
1.49775631224e-06
1.61443951744e-06
9.9454290378e-07
9.94672378959e-07
9.94309771826e-07
9.94845382678e-07
9.94192726354e-07
9.94366254144e-07
9.94457192702e-07
1.41962095925e-06
9.93623449807e-07
9.93841738158e-07
9.93398097886e-07
9.9348727438e-07
1.42825075774e-06
9.94465120533e-07
9.93981549385e-07
9.94051598052e-07
1.55537350846e-06
9.93283899981e-07
9.93450524476e-07
9.92332263305e-07
9.93109206955e-07
1.56141467831e-06
9.94551932163e-07
9.94433689235e-07
9.94405706749e-07
1.38121773656e-06
9.8651836057e-07
9.87108613127e-07
9.8605773184e-07
9.86099514561e-07
1.46255906539e-06
1.52172236272e-06
9.85861360262e-07
9.86019192701e-07
9.85147216032e-07
9.85457005972e-07
1.5867022015e-06
9.86176421931e-07
9.86450277849e-07
1.38992591788e-06
9.93721167995e-07
9.90591726348e-07
9.90341397947e-07
9.91028381568e-07
9.90795124313e-07
9.93758162557e-07
9.93377062629e-07
9.89930334966e-07
9.89879827847e-07
9.90066339242e-07
9.89928524808e-07
9.93354701454e-07
1.45417539228e-06
9.86081872807e-07
9.86139015855e-07
9.85659933534e-07
9.85823203153e-07
1.52934877896e-06
9.9339223546e-07
9.89496694897e-07
9.8931956128e-07
9.89790859663e-07
9.89660847597e-07
9.93442537921e-07
9.92502032537e-07
9.87855292719e-07
9.87614721543e-07
9.89096050533e-07
9.88046608621e-07
9.92809428292e-07
1.57862686496e-06
9.85577947465e-07
9.85615517847e-07
1.36607925641e-06
1.02279285131e-06
1.02092924844e-06
1.05688925679e-06
1.05458521867e-06
1.48191259876e-06
1.50600071538e-06
1.06247416854e-06
1.05962065651e-06
1.10260861575e-06
1.09955068106e-06
1.60631672948e-06
1.03580821898e-06
1.0332632493e-06
1.41087732799e-06
1.43804189478e-06
1.04098969959e-06
1.03823641392e-06
1.07938451326e-06
1.07622034586e-06
1.54675882327e-06
1.5677862117e-06
1.08412900659e-06
1.08174192922e-06
1.02627168005e-06
1.02460871392e-06
1.37382592973e-06
9.86754845968e-07
9.84467177689e-07
9.84297607453e-07
9.84614524726e-07
9.84556088674e-07
9.86931319156e-07
9.86094032741e-07
9.85359589206e-07
9.85382946279e-07
9.85102709829e-07
9.85282391339e-07
9.86122849742e-07
1.47300412406e-06
1.05170847812e-06
1.0486386887e-06
1.067606816e-06
1.0648928958e-06
1.51368847346e-06
9.85883022046e-07
9.85558849805e-07
9.85693104562e-07
9.85490085929e-07
9.85548899865e-07
9.85934118973e-07
9.85203366667e-07
9.88345584094e-07
9.88964675376e-07
9.86870374458e-07
9.87570092027e-07
9.8535004787e-07
1.59717057189e-06
1.0959603875e-06
1.09187334055e-06
9.86254517976e-07
9.84384213816e-07
9.84506918442e-07
9.8432907607e-07
9.84348831078e-07
9.86336528709e-07
1.40019561754e-06
1.03070003021e-06
1.02821884224e-06
1.04619407594e-06
1.0437957955e-06
1.44678176682e-06
9.86117128046e-07
9.85002753643e-07
9.85041624425e-07
9.84629651263e-07
9.84827389232e-07
9.86100253146e-07
9.85728709748e-07
9.85974832383e-07
9.86125688555e-07
9.85830021219e-07
9.85864620356e-07
9.85757588158e-07
1.53708979494e-06
1.07303772651e-06
1.07041269812e-06
1.0890282072e-06
1.08678404781e-06
1.57336887089e-06
9.85652856804e-07
9.86426489292e-07
9.8653677558e-07
9.86140476304e-07
9.86223681635e-07
9.8555347764e-07
9.90261530906e-07
9.90211690506e-07
9.87613524937e-07
9.87687553802e-07
9.90156871415e-07
9.90086431433e-07
9.89888709802e-07
9.89582604351e-07
9.88484762558e-07
9.94766634211e-07
9.94769539817e-07
9.94781252262e-07
9.94811261946e-07
9.94889090952e-07
9.95083814644e-07
9.95549945736e-07
9.96569667712e-07
9.96585765644e-07
9.9739612734e-07
9.97777066118e-07
9.97709607776e-07
9.98330520359e-07
9.97643190202e-07
9.9820526468e-07
9.96088337176e-07
9.94973803335e-07
9.94580437291e-07
9.94783791712e-07
9.9494242839e-07
9.94953902315e-07
1.62171347341e-06
1.73583758927e-06
9.95095576008e-07
9.9446395779e-07
9.94635576413e-07
9.94647863067e-07
1.6838379583e-06
9.92800931187e-07
9.92275112697e-07
9.92412548758e-07
9.92801034177e-07
1.69099570081e-06
9.9486096771e-07
9.94909391411e-07
9.95053883927e-07
1.64680591481e-06
9.85262861009e-07
9.85216628853e-07
9.8378070595e-07
9.84371668737e-07
1.7186934791e-06
9.84838415913e-07
9.85202952123e-07
1.65462507395e-06
9.92593849491e-07
9.87844496245e-07
9.8747236344e-07
9.87686925331e-07
9.87894925385e-07
9.9238354221e-07
9.92607520577e-07
9.86874046968e-07
9.8640472077e-07
9.87305252052e-07
9.86955967114e-07
9.92767331562e-07
1.71149008986e-06
9.84486763989e-07
9.84714578636e-07
1.62977517593e-06
1.10901710149e-06
1.10562182469e-06
1.15640613962e-06
1.15324386774e-06
1.72948218617e-06
1.13083009144e-06
1.12665581255e-06
1.6738405608e-06
1.69709899835e-06
1.13723078652e-06
1.13419259439e-06
1.11573840468e-06
1.1124292278e-06
1.63846060059e-06
9.85298358035e-07
9.91152821018e-07
9.91831471579e-07
9.89627720799e-07
9.9041685895e-07
9.85269352145e-07
9.8400434131e-07
1.00063069616e-06
1.00143885008e-06
9.9908519243e-07
9.99952487608e-07
9.84210203954e-07
1.72430025694e-06
1.15046954465e-06
1.14743393552e-06
9.84953761501e-07
9.93992988311e-07
9.94903498028e-07
9.92522926723e-07
9.93213095683e-07
9.85098637481e-07
1.66335396165e-06
1.12259726132e-06
1.1190805981e-06
1.14395992802e-06
1.14033434432e-06
1.70371307288e-06
9.84538078033e-07
9.97280473439e-07
9.98166646058e-07
9.95725953331e-07
9.9653456101e-07
9.84569582164e-07
9.90318522298e-07
9.90410700086e-07
9.87024881407e-07
9.86734690885e-07
9.90072192053e-07
9.9018782732e-07
9.89826134714e-07
9.89942530106e-07
9.86571338437e-07
9.87118181414e-07
9.90499323111e-07
9.90619090107e-07
9.90747340798e-07
9.90800202751e-07
9.87604153218e-07
9.87757611191e-07
9.90828607441e-07
9.90771339021e-07
9.90695488712e-07
9.9057523973e-07
9.87889970223e-07
9.87777397322e-07
9.90425599323e-07
9.90327733243e-07
9.94780106997e-07
9.94789116011e-07
9.94844010467e-07
9.94831972457e-07
9.94965674538e-07
9.94928966636e-07
9.95206525246e-07
9.95155125308e-07
9.95708998964e-07
9.95649276177e-07
9.96511594289e-07
9.97149853133e-07
9.97357627975e-07
9.97296389496e-07
9.9639451937e-07
9.95245530397e-07
9.95039252101e-07
9.95202798107e-07
9.95150722042e-07
9.95223084331e-07
9.95193344025e-07
1.74439420173e-06
1.83847398597e-06
9.95041120937e-07
9.95016883605e-07
9.94920430311e-07
9.95165753515e-07
1.79621842419e-06
9.91923626774e-07
9.92243749909e-07
9.91442799774e-07
9.91824865672e-07
1.8020238334e-06
9.95079296296e-07
9.94804131497e-07
9.94769482611e-07
1.76832250396e-06
9.83593366068e-07
9.83765513041e-07
9.83266432317e-07
9.83508231886e-07
1.82328044479e-06
9.83638040664e-07
9.83611929469e-07
1.77527020565e-06
9.91985350301e-07
9.85959735971e-07
9.85846133055e-07
9.86293240087e-07
9.85990392833e-07
9.92047117504e-07
9.91591502347e-07
9.85531254838e-07
9.85156573515e-07
9.85773825564e-07
9.85592372084e-07
9.91720789774e-07
1.81823631177e-06
9.83517687877e-07
9.83595309762e-07
1.75370463686e-06
1.16469583709e-06
1.160445811e-06
1.21302778181e-06
1.20948305503e-06
1.83269311751e-06
1.1874100724e-06
1.18393358811e-06
1.79005668182e-06
1.80741152238e-06
1.19372204567e-06
1.19064113602e-06
1.17206640093e-06
1.1685108211e-06
1.76169907486e-06
9.83662016911e-07
1.00470119536e-06
1.00572857195e-06
1.00254832255e-06
1.00366190032e-06
9.83731616848e-07
9.83401821318e-07
1.01746955878e-06
1.01854949637e-06
1.0154686046e-06
1.01647769529e-06
9.83467659394e-07
1.82783151224e-06
1.2063825429e-06
1.20336332254e-06
9.83657730273e-07
1.00940595306e-06
1.01047570316e-06
1.00685948804e-06
1.00814735765e-06
9.83647766795e-07
1.78307260865e-06
1.17996542016e-06
1.17578406338e-06
1.20014288163e-06
1.196855406e-06
1.81275769039e-06
9.83505598687e-07
1.01333317147e-06
1.01438961247e-06
1.01144118473e-06
1.01236623929e-06
9.83534779765e-07
9.86195454198e-07
9.89628254348e-07
9.89716436411e-07
9.89419956555e-07
9.89514167785e-07
9.86093920454e-07
9.85934500796e-07
9.89356764923e-07
9.89389328992e-07
9.89276963876e-07
9.89323909517e-07
9.85901910185e-07
9.85694987257e-07
9.89142680586e-07
9.89211312434e-07
9.89009185914e-07
9.89074712842e-07
9.85641799144e-07
9.85441017288e-07
9.88829471226e-07
9.88923150752e-07
9.88570524413e-07
9.8870349082e-07
9.85322964906e-07
9.94827163342e-07
9.94963604581e-07
9.94971946492e-07
9.95253822461e-07
9.95736107759e-07
9.96437126877e-07
9.96950653742e-07
9.97133893733e-07
9.97099542873e-07
9.96497528297e-07
9.9558116527e-07
9.95187931339e-07
9.95242060345e-07
9.94986255928e-07
9.95179964013e-07
9.95072260202e-07
9.95207197916e-07
1.84495298993e-06
1.91520542942e-06
9.94738251262e-07
9.94696173846e-07
9.94592161496e-07
9.94906851232e-07
1.87986279871e-06
9.90914241754e-07
9.91291508588e-07
9.90605254293e-07
9.90816102056e-07
1.88539055758e-06
9.94829983767e-07
9.94546102197e-07
9.94513742601e-07
1.86010950758e-06
9.83236708727e-07
9.8319881193e-07
9.83533597792e-07
9.8344089334e-07
1.90328983316e-06
9.83429583565e-07
9.83304544275e-07
1.86394235014e-06
9.91008467568e-07
9.84871012225e-07
9.84766727651e-07
9.8501536224e-07
9.8485284237e-07
9.91151848749e-07
9.90679235945e-07
9.84460256249e-07
9.84355507758e-07
9.84652138295e-07
9.84462379265e-07
9.90752395575e-07
1.89850104861e-06
9.83338520829e-07
9.83392288718e-07
1.85125320211e-06
1.22075494273e-06
1.21697258799e-06
1.26693048257e-06
1.26379211793e-06
1.91150739527e-06
1.24090282762e-06
1.23683662178e-06
1.87399590344e-06
1.89002700202e-06
1.2476719422e-06
1.24455767268e-06
1.22684670995e-06
1.22404458487e-06
1.85623382989e-06
9.83210604806e-07
1.02205208359e-06
1.02306007732e-06
1.01972208828e-06
1.02091902336e-06
9.83199106158e-07
9.83537252759e-07
1.03637270051e-06
1.03755445871e-06
1.03381255943e-06
1.03519143246e-06
9.83525017463e-07
1.90785794872e-06
1.26074547461e-06
1.25721957946e-06
9.8342611452e-07
1.02671807482e-06
1.02803325237e-06
1.0240842504e-06
1.02531105138e-06
9.83392149952e-07
1.86849111854e-06
1.23289384749e-06
1.22961973464e-06
1.2536291484e-06
1.25056012339e-06
1.89421604778e-06
9.83298180719e-07
1.03130700274e-06
1.03243604969e-06
1.02923804278e-06
1.03029095784e-06
9.83332827716e-07
9.84924251138e-07
9.88344775772e-07
9.88429599297e-07
9.88193454003e-07
9.8825165501e-07
9.84874088017e-07
9.84860983414e-07
9.88111602352e-07
9.88157085664e-07
9.87984963386e-07
9.88046893756e-07
9.84817828075e-07
9.84526281089e-07
9.87776670212e-07
9.87873846581e-07
9.8767897531e-07
9.87721518832e-07
9.84469078268e-07
9.84450071952e-07
9.87596041349e-07
9.87636571717e-07
9.87472068105e-07
9.87533710066e-07
9.84406921384e-07
9.95277405578e-07
9.95230072986e-07
9.9576364002e-07
9.96379144872e-07
9.96822654596e-07
9.96963088096e-07
9.96952782554e-07
9.9652572104e-07
9.95730985189e-07
9.95288581731e-07
9.95142917396e-07
9.95144816188e-07
9.94706511547e-07
9.94931402078e-07
9.94812425987e-07
9.95075115339e-07
1.91951989103e-06
1.97177094863e-06
9.94579860378e-07
9.94496343164e-07
9.94428076037e-07
9.9465481547e-07
1.9466728908e-06
9.90318077929e-07
9.90525310363e-07
9.8996381074e-07
9.90162896103e-07
1.949996226e-06
9.94624131277e-07
9.9438121283e-07
9.94312648801e-07
1.93005555377e-06
9.8351882431e-07
9.83557581527e-07
9.84465776523e-07
9.83945166514e-07
1.96121576263e-06
9.83954126611e-07
9.83550900727e-07
1.93388874757e-06
9.90413572954e-07
9.84128698536e-07
9.84209018277e-07
9.84309584052e-07
9.84124428296e-07
9.90473997562e-07
9.90030290363e-07
9.83854284382e-07
9.83786062662e-07
9.84161677345e-07
9.83886685485e-07
9.90097060097e-07
1.95835009597e-06
9.83908906588e-07
9.83972473976e-07
1.92360201048e-06
1.2738533211e-06
1.27049117349e-06
1.3169838497e-06
1.31356734779e-06
1.96821646199e-06
1.29320731609e-06
1.28971738239e-06
1.94275120507e-06
1.95285185318e-06
1.29871318753e-06
1.29613396733e-06
1.27935403542e-06
1.27672744711e-06
1.92695877294e-06
9.83530233316e-07
1.04133955095e-06
1.04238979246e-06
1.03890469675e-06
1.04020979693e-06
9.83556490565e-07
9.84190958003e-07
1.05676973744e-06
1.05831960479e-06
1.05401587815e-06
1.05530580594e-06
9.83979546733e-07
1.96447510861e-06
1.31015911671e-06
1.30707629117e-06
9.83879328746e-07
1.04662900692e-06
1.04808943483e-06
1.04353523386e-06
1.04494855348e-06
9.83693149059e-07
1.93821913903e-06
1.28582340233e-06
1.28233568299e-06
1.3041753674e-06
1.30142039284e-06
1.95561642568e-06
9.8388051999e-07
1.0515070378e-06
1.05272392134e-06
1.04929784352e-06
1.05035402683e-06
9.83937741064e-07
9.84237910256e-07
9.87345270021e-07
9.87406956497e-07
9.87239503483e-07
9.87276522732e-07
9.84152514106e-07
9.84204381019e-07
9.87241388758e-07
9.87219703307e-07
9.87133262127e-07
9.8720772436e-07
9.84234601552e-07
9.84060279499e-07
9.86931191187e-07
9.87050416802e-07
9.86779891316e-07
9.86826367388e-07
9.83937499257e-07
9.83836805508e-07
9.86682813455e-07
9.86717666152e-07
9.86578742034e-07
9.86641243706e-07
9.83802766824e-07
9.95881920806e-07
9.95693160705e-07
9.96309955331e-07
9.96666164002e-07
9.96821322488e-07
9.96830733318e-07
9.96528569316e-07
9.95855932828e-07
9.95360287039e-07
9.9521076071e-07
9.95102461846e-07
9.94998252059e-07
9.94534856885e-07
9.94260069096e-07
9.94692795644e-07
9.94538314597e-07
9.94907502578e-07
1.97475182102e-06
2.01814344489e-06
9.94268629858e-07
2.02172047852e-06
2.06729846376e-06
9.94216182997e-07
9.94207179666e-07
9.94046456982e-07
9.94453295672e-07
9.93707526753e-07
9.93607178276e-07
9.9423016552e-07
1.99803236246e-06
9.89512071831e-07
9.89837882587e-07
9.89263558129e-07
9.89444606764e-07
2.00278162318e-06
9.94367648601e-07
9.93892467557e-07
9.93785594494e-07
2.04312478467e-06
9.89087381083e-07
9.89229019636e-07
9.88801415101e-07
9.89017615378e-07
2.04595318809e-06
9.94231285657e-07
9.93505609494e-07
9.93380994645e-07
1.98168156192e-06
9.85966401001e-07
9.8483246173e-07
9.91517820551e-07
9.90332424644e-07
2.012241352e-06
2.03512558391e-06
9.93914756537e-07
9.920202668e-07
1.00038683803e-06
9.98808842631e-07
2.06315525239e-06
9.87956346899e-07
9.86404211219e-07
1.98468176093e-06
9.83725609443e-07
9.83622758384e-07
9.89663193875e-07
9.89318739083e-07
9.83839127955e-07
9.83766714456e-07
2.01076350183e-06
9.89866545615e-07
9.88534119088e-07
9.95638356198e-07
9.94392255089e-07
2.03759444028e-06
9.89151456266e-07
9.83926891101e-07
9.83774465868e-07
9.83777816128e-07
9.83940730036e-07
9.89213341219e-07
9.88903923634e-07
9.83933842443e-07
9.83924111159e-07
9.83758041989e-07
9.83848417103e-07
9.88978066481e-07
2.05954941847e-06
9.98073471566e-07
9.96177781954e-07
1.97717355351e-06
1.32228190776e-06
1.31985780038e-06
1.36239741969e-06
1.35991082639e-06
2.01569104365e-06
2.02636200823e-06
1.36915516001e-06
1.36544623641e-06
1.40927157401e-06
1.40751803275e-06
2.06673394448e-06
1.34144297033e-06
1.33753154059e-06
1.99313752858e-06
2.00645321963e-06
1.34801155626e-06
1.3450741545e-06
1.38590614773e-06
1.38352283113e-06
2.04109221051e-06
2.04966332181e-06
1.39199040024e-06
1.38876576463e-06
1.32701964292e-06
1.32455383649e-06
1.97934602385e-06
1.05970268676e-06
1.06099187981e-06
9.85225226491e-07
9.91104770669e-07
1.08084632484e-06
1.08218901731e-06
1.07833871071e-06
1.07961296009e-06
9.90726532872e-07
2.01379355647e-06
1.3577176745e-06
1.35553127522e-06
1.37668285819e-06
1.37333261012e-06
2.03144067936e-06
9.93269584248e-07
1.08780424903e-06
1.08967345307e-06
1.08380085062e-06
1.0856942797e-06
9.92592400815e-07
9.99924595463e-07
1.10680669717e-06
1.10799488251e-06
1.10399929915e-06
1.10548542559e-06
9.99389119851e-07
2.0659971749e-06
1.40540034909e-06
1.40282847143e-06
1.98860304211e-06
1.33362290413e-06
1.33000578423e-06
1.35315049247e-06
1.35061189156e-06
2.00903907044e-06
9.95182782127e-07
1.09348629106e-06
1.09483901021e-06
1.09106073601e-06
1.09227187783e-06
9.94789636671e-07
2.03937905574e-06
1.38135580757e-06
1.37919275136e-06
1.39960698358e-06
1.39557893862e-06
2.05435811446e-06
9.97395658375e-07
1.10016381438e-06
1.10217492904e-06
1.09645672996e-06
1.09827602268e-06
9.96779264905e-07
9.85588499794e-07
1.06224699578e-06
1.0635747317e-06
9.89569851085e-07
9.83650362762e-07
9.83760661435e-07
1.06512680664e-06
1.06693395635e-06
9.86901379865e-07
9.87426860334e-07
1.0688387443e-06
1.07068987974e-06
9.83862754433e-07
9.83843527161e-07
9.89385056271e-07
1.07251088457e-06
1.07405585845e-06
9.89025042169e-07
9.89423642897e-07
1.07546639977e-06
1.07693667461e-06
9.83664195707e-07
9.86317988894e-07
9.86457926861e-07
9.86141749032e-07
9.86200967744e-07
9.83623832016e-07
9.83686515106e-07
9.86143486176e-07
9.86137242094e-07
9.86143002601e-07
9.86140770485e-07
9.83719244197e-07
9.83883235972e-07
9.86163338416e-07
9.8617200265e-07
9.86082074122e-07
9.86128932377e-07
9.83857126899e-07
9.83807550821e-07
9.86006992179e-07
9.86048131688e-07
9.85920168101e-07
9.85949445851e-07
9.83765696266e-07
9.83816245818e-07
9.85916848589e-07
9.85903445313e-07
9.8596355693e-07
9.85965879835e-07
9.83906781442e-07
9.83861907775e-07
9.8586387075e-07
9.85933451521e-07
9.85762416496e-07
9.85793673819e-07
9.83770870063e-07
9.83749140501e-07
9.85701086621e-07
9.85721481661e-07
9.85734046224e-07
9.85695585679e-07
9.83761229221e-07
9.8395386769e-07
9.85719247341e-07
9.85741989503e-07
9.85593363492e-07
9.85677013505e-07
9.83960844221e-07
9.97280593344e-07
9.96260638497e-07
9.96660181595e-07
9.9674630533e-07
9.9673839601e-07
9.96521965972e-07
9.95957502663e-07
9.9544609196e-07
9.95237498035e-07
9.95182701338e-07
9.95092578678e-07
9.95143308386e-07
9.9506655051e-07
9.95033361322e-07
9.94960934189e-07
9.94812709373e-07
9.94699554202e-07
9.94218214878e-07
9.94384655334e-07
9.94272510115e-07
9.94714858862e-07
9.94231353452e-07
9.94192270218e-07
9.94686285497e-07
2.06784962005e-06
2.11233683267e-06
9.94160578825e-07
9.93250088888e-07
9.93105582739e-07
9.94195229141e-07
2.08829495724e-06
9.88578625867e-07
9.88717124555e-07
9.88283375684e-07
9.88473393378e-07
2.09006641845e-06
9.94177443172e-07
9.92931593366e-07
9.92752301607e-07
2.073923757e-06
1.00242453822e-06
1.00082890849e-06
1.01015386285e-06
1.00802297506e-06
2.10009926744e-06
1.00490914685e-06
1.00306719769e-06
2.07874938542e-06
9.88638067427e-07
9.83749243183e-07
9.83876072407e-07
9.83830485044e-07
9.83753116663e-07
9.8867412397e-07
9.8833185775e-07
9.83984191979e-07
9.83848184765e-07
9.83892801649e-07
9.83977612249e-07
9.88404501655e-07
2.09658179703e-06
1.00732268202e-06
1.00541213488e-06
2.06861527395e-06
1.41293151452e-06
1.41101339584e-06
1.45346776284e-06
1.45032718365e-06
2.10922810722e-06
1.43048637461e-06
1.42810631755e-06
2.08612819427e-06
2.09191563769e-06
1.43507430813e-06
1.4327169285e-06
1.41811778316e-06
1.4152915305e-06
2.07054948319e-06
1.00184905888e-06
1.11201369629e-06
1.11371765557e-06
1.10918519636e-06
1.11048593607e-06
1.00130533853e-06
1.00949056113e-06
1.13236523771e-06
1.13420139984e-06
1.12821815188e-06
1.13026342177e-06
1.00878049631e-06
2.10484417496e-06
1.44653165096e-06
1.44300494055e-06
1.00438063726e-06
1.1191217596e-06
1.12042501664e-06
1.11567384353e-06
1.11761646991e-06
1.00377872356e-06
2.08308801887e-06
1.42533267591e-06
1.42178235072e-06
1.44018113865e-06
1.43760816036e-06
2.09398231835e-06
1.00663514459e-06
1.12473962668e-06
1.12644005439e-06
1.12169631334e-06
1.12311050217e-06
1.00597461595e-06
9.83815365485e-07
9.85480498826e-07
9.85511983649e-07
9.85406715232e-07
9.85434120425e-07
9.83784878943e-07
9.83810169483e-07
9.85448681715e-07
9.85419987394e-07
9.85414786498e-07
9.8544329072e-07
9.83848759807e-07
9.83918722355e-07
9.85364343321e-07
9.8538735155e-07
9.85314339101e-07
9.85341239776e-07
9.83966392013e-07
9.83956897657e-07
9.85211773473e-07
9.85278219532e-07
9.85133117566e-07
9.85175167414e-07
9.83884090733e-07
9.99129617039e-07
9.96550210316e-07
9.96768559376e-07
9.96716074932e-07
9.96720861126e-07
9.96568601274e-07
9.96530585984e-07
9.9615770251e-07
9.96044821778e-07
9.95618460084e-07
9.95515701821e-07
9.95254022558e-07
9.95089979659e-07
9.95020720844e-07
9.95005550673e-07
9.94922472451e-07
9.94674117002e-07
9.94150414516e-07
9.94154719561e-07
9.94121961512e-07
9.9465540391e-07
2.1144795322e-06
2.14036675004e-06
9.94111708755e-07
9.92563046755e-07
9.92335698757e-07
9.94127007599e-07
2.12667400937e-06
9.88009156954e-07
9.88222487953e-07
9.87619128014e-07
9.87905677956e-07
2.13065864259e-06
9.94105459972e-07
9.92115187728e-07
9.91895470156e-07
2.11756293664e-06
1.01223694629e-06
1.01078351478e-06
1.01979082077e-06
1.0180176025e-06
2.13802114796e-06
1.01509979525e-06
1.01276709196e-06
2.11881720288e-06
9.88124625163e-07
9.84090781564e-07
9.84106955932e-07
9.83804644461e-07
9.83895801788e-07
9.88201845378e-07
9.87713874699e-07
9.84077870211e-07
9.84185349724e-07
9.83992077406e-07
9.84008656241e-07
9.87825649133e-07
2.13712389779e-06
1.01757153275e-06
1.01577657895e-06
2.11557306279e-06
1.45827942035e-06
1.45613333103e-06
1.48835828875e-06
1.4864253885e-06
2.1394150456e-06
1.47075938408e-06
1.46755357002e-06
2.12332208763e-06
2.13455767834e-06
1.4775087316e-06
1.47427254876e-06
1.46164101509e-06
1.46007012164e-06
2.11642714579e-06
1.01180657109e-06
1.13831867999e-06
1.1393337664e-06
1.13583656623e-06
1.13716368797e-06
1.01131389688e-06
1.01907946188e-06
1.15534528745e-06
1.1570130597e-06
1.15306048831e-06
1.15402503033e-06
1.01848356178e-06
2.13885621843e-06
1.48469487619e-06
1.48319288896e-06
1.01437627084e-06
1.14388129246e-06
1.14595925429e-06
1.14043531542e-06
1.14192015028e-06
1.01354798195e-06
2.1206068112e-06
1.46501264221e-06
1.46320925427e-06
1.48171413131e-06
1.47995927333e-06
2.13650709023e-06
1.0170547504e-06
1.15117193953e-06
1.15219471983e-06
1.14793443594e-06
1.1497304813e-06
1.01642872289e-06
9.83793782956e-07
9.85078111363e-07
9.85098773099e-07
9.85140758522e-07
9.85076603982e-07
9.83805005815e-07
9.84187934929e-07
9.85162083003e-07
9.85182643564e-07
9.8500638588e-07
9.85107529788e-07
9.84194358387e-07
9.83964232392e-07
9.84901396599e-07
9.84952515565e-07
9.84877811389e-07
9.84887307202e-07
9.83975659004e-07
9.84174410069e-07
9.84870873319e-07
9.84876234917e-07
9.84763096393e-07
9.84858599792e-07
9.84204398251e-07
9.96956699073e-07
9.96703381064e-07
1.00394669471e-06
1.00137246276e-06
9.9795501117e-07
9.97607670287e-07
1.00975339284e-06
1.03853876628e-06
9.965476481e-07
9.9680171794e-07
9.96610800483e-07
9.96235623498e-07
9.95743498722e-07
9.95374531433e-07
9.95138388697e-07
9.95043768161e-07
9.94995605306e-07
9.9498470513e-07
9.94925478239e-07
9.94635399391e-07
9.94112905722e-07
9.94097127252e-07
9.9410979277e-07
9.94637555912e-07
2.14245891912e-06
2.1791035998e-06
9.94135006786e-07
9.9167632848e-07
9.91393697471e-07
9.94122026777e-07
2.16088504651e-06
9.87456627723e-07
9.87561107861e-07
9.87018573979e-07
9.87221177385e-07
2.16099268986e-06
9.94121283438e-07
9.91108145909e-07
9.90744687894e-07
2.15435259464e-06
1.0226360091e-06
1.02053737636e-06
1.03095522291e-06
1.0287215947e-06
2.16808568365e-06
1.02520076377e-06
1.0233598961e-06
2.1579081278e-06
9.87601078415e-07
9.84018373556e-07
9.84249223665e-07
9.8408847609e-07
9.83913708729e-07
9.87604873367e-07
9.87133127231e-07
9.84159525306e-07
9.84383053922e-07
9.84196403148e-07
9.84103523211e-07
9.87180319503e-07
2.16433161692e-06
1.0278397811e-06
1.02580515779e-06
2.14624228563e-06
1.49365271954e-06
1.49065800145e-06
1.5273408055e-06
1.52519555033e-06
2.1762729537e-06
1.5088891331e-06
1.50707838057e-06
2.16012916765e-06
2.16121880647e-06
1.51237254302e-06
1.51066136413e-06
1.50021833909e-06
1.49720207204e-06
2.15068129029e-06
1.02197083034e-06
1.16291857416e-06
1.16468760306e-06
1.15888537149e-06
1.16083345095e-06
1.02124731771e-06
1.03050055469e-06
1.18199969461e-06
1.18310084791e-06
1.17808441286e-06
1.18048650867e-06
1.02984157477e-06
2.17260143194e-06
1.52268973256e-06
1.51932066543e-06
1.02462036134e-06
1.16870787501e-06
1.17002737778e-06
1.16616056173e-06
1.16744496598e-06
1.02401397221e-06
2.15958201027e-06
1.50509558618e-06
1.5028381939e-06
1.51611180828e-06
1.51413282418e-06
2.16210864884e-06
1.02712555319e-06
1.17456825468e-06
1.17612844102e-06
1.17149173649e-06
1.17303268092e-06
1.02643367722e-06
9.83940810542e-07
9.84589608373e-07
9.84668317898e-07
9.84650427683e-07
9.84570492119e-07
9.83896694447e-07
9.84140686573e-07
9.847921178e-07
9.84777725713e-07
9.84748806069e-07
9.84789208721e-07
9.84212928788e-07
9.8414669548e-07
9.84458381606e-07
9.84578493052e-07
9.84420844306e-07
9.84433930586e-07
9.8413023916e-07
9.84339189377e-07
9.84594489188e-07
9.84505849165e-07
9.84539915112e-07
9.84595241175e-07
9.84363311083e-07
9.96905133057e-07
9.96881014063e-07
1.0502845632e-06
1.04498340261e-06
9.96683645082e-07
9.96622224307e-07
1.04802083489e-06
9.95726221524e-07
9.95662143591e-07
9.96558331691e-07
9.96755290741e-07
1.03780852752e-06
9.96943003856e-07
9.96728186512e-07
1.04407897233e-06
9.96677782846e-07
9.96781590368e-07