/*--------------------------------*- C++ -*----------------------------------*\
  =========                 |
  \\      /  F ield         | OpenFOAM: The Open Source CFD Toolbox
   \\    /   O peration     | Website:  https://openfoam.org
    \\  /    A nd           | Version:  8
     \\/     M anipulation  |
\*---------------------------------------------------------------------------*/
FoamFile
{
    version     2.0;
    format      ascii;
    class       volScalarField;
    location    "1e-05";
    object      N2;
}
// * * * * * * * * * * * * * * * * * * * * * * * * * * * * * * * * * * * * * //

dimensions      [0 0 0 0 0 0 0];

internalField   nonuniform List<scalar> 
49758
(
0
0
0
0
0
1.11022302463e-15
5.44009282066e-15
0
7.32747196253e-15
0
0
8.15281175903e-12
0
9.04940899993e-10
3.64595520441e-09
1.82901138679e-10
0.0754237886641
0.303643039045
0
0
0
1.15824372315e-09
2.3761167478e-09
2.60884769343e-09
1.7717556311e-09
0.241319713001
3.85231578837e-06
0
0.000390620819933
1.02879672103e-05
0.248805059871
3.48654860538e-09
0
4.18375977069e-05
0.174193731288
0
8.96131839675e-05
0
0
0.28586179035
1.41891366434e-08
0
0
0
0
0
0
0
0.198084416653
8.85661922134e-07
3.96240782943e-05
0
6.07365055394e-06
0.00011437394429
0
0.000254721023483
0
0
0
0
0.000139632779585
0.273708510239
0
0
0
0
5.13884002018e-09
1.61143791119e-05
0
0
0
0
1.33357358313e-05
0.114642304391
0
0
0.0225660279295
0.0200143998683
0.299590396422
0
0
0.23041507733
1.25535217566e-06
3.16697510222e-05
4.61353265857e-05
9.6597753896e-05
0.000146605963031
0
0.256473053033
0.00553832589928
0.00172024760319
0
0
0
0
0
0.140791263568
0
0
0
0
0
1.32124810351e-05
0
0
0
0
0
0
0.29021797931
0.0171808653332
0.0147356650078
0
0
8.27793134039e-09
0
0
0
0
0
0
0.210293814316
0
0
0
0.000119378587858
7.25713380664e-05
0.000219392740743
0.000148833241514
0
4.30252500908e-05
8.9411069637e-07
0
4.93681139656e-05
9.81121104671e-06
0.000154685822005
0.0114801456038
0.00856125670496
0.266648682691
0
0
0
0
0
0
0
0
3.19153619832e-06
0
0
0
0
0
0
0
0
0
0
0
1.11022302463e-15
6.77236045021e-15
0
0
4.63407090479e-13
6.47250586461e-10
0
0
0
0
5.85902737438e-09
0.311303599844
0.399142647091
0
3.01983131707e-05
5.54835184564e-05
0
0.357500519047
0.00108524657552
0.000550989030952
0.00175183511307
0.00125912850423
0.36327320574
0
0.000110746299555
0.000161736532759
0.331638773869
0
0
0
0
0.385120158788
0
0
0.338612696549
0.000897933088337
0
0
0
0
0.000714582684618
0.00159015863801
0
0
0
0
0.00145279468849
0.379738642561
0
0
0.318447098116
0.0274667449234
0.0253723475863
0.0725382257389
0.0688313119169
0.3944357408
0.0448003001049
0.0426515261933
0.351886177124
0.369186495357
0.0523756317283
0.0482164905758
0.0340509287683
0.0313013998892
0.325047964479
0
0
0
0
0
0
0
0
0
0
0
0
0.390044376973
0.0653091421711
0.0614989244058
0
0
0
0
0
0
0.345656533601
0.0398383287845
0.0367915928577
0.0585346457431
0.0556580806137
0.374417737174
0
0
0
0
0
0
0
0
0
0
0
9.99200722163e-16
1.36557432029e-14
0
0
1.10382258889e-10
8.86085971263e-09
4.83186657352e-09
0
0
0
0
0
2.39398412205e-09
0
0
0
0.404152353153
0.455452699129
0
0.457813531827
0.485035879899
3.54722614629e-05
0.000265125523148
0.000341843325043
0
0.000811258622887
0.000988448565032
0
0.431622895689
0.00223044042124
0.00187705995046
0.00220563481599
0.00226950057031
0.434815542888
0
0.00055425445277
0.000659342590397
0.472358294629
0.0015875670613
0.00213537947287
0.000208357617955
0.00140795126382
0.473684248678
1.34343180989e-05
0.00124070047386
0.00146005876321
0.416031370985
0
0
0
0
0.44695385059
0.464279276439
0
0
0
0
0.478731960797
0
0
0.419695171427
0.0021288970628
0
0
0
0
0.00204754682578
0.00224803690824
0
0
0
0
0.00226567003418
0.444289928027
0
0
0
0
0.46632161659
0.00184684438368
0
0
0
0
0.00192994385854
0.000526238531848
0
0
0
0
0.000901014982409
0.476985997594
0
0
0.408795620289
0.0803462218865
0.076429492841
0.136124781244
0.132413209797
0.453243916022
0.460113356516
0.144303553797
0.140192012986
0.198883590836
0.194914289437
0.483380331343
0.103607834239
0.0996679011627
0.428161039062
0.438317788353
0.111478276349
0.107298342829
0.168471666019
0.164131289391
0.470364479083
0.474857767376
0.175319439056
0.171927926103
0.0876476928046
0.0841110516713
0.41267966165
0
0
0
0
0
0
0
0
0
0
0
0
0.450427666814
0.128123976091
0.123516029598
0.151965719554
0.14803383963
0.462210865359
0
0
0
0
0
0
0
0.00470299806474
0.00643502236183
0.00145075706796
0.00270842206492
0
0.481258025935
0.190375818215
0.185473639398
0
0
0
0
0
0
0.423991163308
0.095619139549
0.0913658632813
0.119616463947
0.115694566249
0.441650180012
0
0
0
0
0
0
0
0
0
0
0
0
0.468078647073
0.159687537114
0.155853032649
0.181816322475
0.178808166316
0.47603224197
0
0
0.000468152551191
0
0
0
0
0
0
0
0
0
0
0
0
0
0
0
3.33066907388e-15
0
1.44328993201e-15
2.17603712827e-14
3.67483821151e-14
0
0
0
0
4.83162843068e-10
1.14655862582e-09
2.29677368235e-08
5.72936806886e-08
0
4.982841437e-05
0
0
0
0.486384188686
0.504813741873
0.000144976886963
0.0016641191861
0.00179299711296
8.49447779736e-05
0.49761623829
0
0
0
0
0.498769307106
0.000116664842079
0.00194727286576
0.00226336696828
0.491373819029
0
0
0
0
0.502753935606
0
0
0.492655684999
0
0
0
0
0
0
0
0
0
0
0
0
0.501665692177
0
0
0.488006000602
0.206755669565
0.202602946455
0.25763479057
0.254704603398
0.504048347698
0.231612458374
0.227103295791
0.495858334485
0.499624471527
0.238734080233
0.235408115065
0.214982757511
0.210885609687
0.489803023309
0
0.0116757088758
0.0137949724426
0.00801053865629
0.00991413293958
0
0
0.0374653094062
0.0393933936832
0.0334045916031
0.0356576153584
0
0.503518811805
0.25212831167
0.249014634902
0
0.0200350515184
0.0224944828849
0.0157797238927
0.0178709564916
0
0.494062787708
0.22282287539
0.218863236601
0.245447329286
0.241832122476
0.500497836393
0
0.028902088262
0.0311692778491
0.0247007019039
0.0269694648415
0
0
0
0
0
0
0
0
0
0
0
0
0
0
0
0
0
0
0
0
0
0
0
0
0
0
0
0
0
0
3.21964677141e-15
2.88657986403e-15
0
0
2.44249065418e-15
1.25455201783e-14
9.57012247227e-14
0
0
3.0321910538e-09
1.32950233711e-07
0
0.00021568065827
0
0
0
0.506087331958
0.516448268873
0.000349018281229
0.00240502500424
0.00258307067555
0.000243031054523
0.512567265109
0
0
0
0
0.513181584293
0.000305401781544
0.00283378072344
0.00307560805013
0.509310110304
0
0
0
0
0.515201896324
0
0
0.51004766462
0
0
0
0
0
0
0
0
0
0
0
0
0.514778316917
0
0
0.507491995708
0.265039288259
0.261218462886
0.303371308709
0.300877532937
0.515874620835
0.284135415382
0.281191569938
0.511835499119
0.513739342743
0.289178582741
0.286727816781
0.271509267534
0.268420448204
0.508555931178
0
0.0465949342349
0.048961309427
0.0417071958134
0.0441777906337
0
0
0.0740356090884
0.0763237432546
0.0697744986213
0.0718850540149
0
0.515540697714
0.298706125308
0.296447924102
0
0.0566011816492
0.0590235472362
0.0513901816502
0.0540092895935
0
0.510991614302
0.277960564386
0.274571311158
0.294062867564
0.291541633235
0.514238223007
0
0.0653240349475
0.0675495838013
0.061213594645
0.0632507096125
0
0
0
0
0
0
0
0
0
0
0
0
0
0
0
0
0
0
0
0
0
0
0
0
0
0
0
0
0
3.21964677141e-15
0
1.88737914186e-14
2.05724326463e-13
0
0
7.64526109087e-09
2.48654487445e-07
0
0.000436321305463
0
0
0
0.517126031462
0.523070766496
0.000654072313472
0.00329663510977
0.003538726029
0.000487737109177
0.520179774558
0
0
0
0
0.520745744987
0.000593115494264
0.00377064659074
0.00397097414971
0.518491032763
0
0
0
0
0.522187722023
0
0
0.51867934313
0
0
0
0
0
0
0
0
0
0
0
0
0.521805230779
0
0
0.517780415109
0.308582945719
0.305978715385
0.336464657924
0.33469898552
0.522785875396
0.32137349356
0.318828105968
0.519556371022
0.521163247195
0.325702871022
0.323689577687
0.312752995273
0.310852838267
0.518235198113
0
0.0833911853206
0.0853824209542
0.0786965528701
0.0811255862195
0
0
0.109677609616
0.111816472116
0.105302717205
0.107578022808
0
0.522532137208
0.333053601861
0.331119188719
0
0.0919100255524
0.0944817952866
0.0873200275687
0.0894770965915
0
0.51903046486
0.316476905323
0.314448139123
0.329216242507
0.327378491385
0.52148029643
0
0.10099832285
0.103054095899
0.0969093967749
0.0990383223166
0
0
0
0
0
0
0
0
0
0
0
0
0
0
0
0
0
0
0
0
0
0
0
0
0
0
0
0
4.77395900589e-15
0
4.50750547998e-14
2.92099677779e-13
0
0
1.53700208116e-08
3.62668674869e-07
0
0.000781205464212
0
0
0
0.523454223546
0.528057920062
0.00106899456288
0.00419495850822
0.00434176218889
0.000849396707852
0.525915479064
0
0
0
0
0.526187318573
0.000990232391375
0.00454363014752
0.0046440519815
0.52432813018
0
0
0.00137754765655
0
0.527014850147
0
0
0.524639028301
0
0
0
0
0
0
0
0
0
0
0
0
0.526775199319
0
0
0.523844960992
0.340311450484
0.338327748535
0.361163913789
0.359646958525
0.527670696813
0.350098786614
0.348393189347
0.525539518539
0.526370126587
0.352754022613
0.351532162826
0.343352793954
0.341912259943
0.524129843414
0
0.118473660337
0.120387171208
0.114100562878
0.116411091565
0
0.000787505262414
0.14292817984
0.145074466421
0.138758644412
0.140768540508
0
0.527315483678
0.358161814049
0.356734653108
0
0.12679484534
0.129019655985
0.122259667258
0.124477399253
0
0.525067415785
0.346569716518
0.344811248865
0.35534223799
0.354024189473
0.526571214944
0
0.134715820177
0.136685071568
0.131030238344
0.13278611212
0
0
0
0
0
0
0
0
0
0
0
0
0
0
0
0
0
0
0
0
0
0
0
0
0
0
0
0
3.10862446895e-15
0
7.42739203474e-14
4.70512517836e-13
0
0
3.17355789425e-08
5.06363397434e-07
0
0.00122925195563
0.0017569302097
0
0
0
0.528393357949
0.533281339116
0.0015864422578
0.533698262455
0.5396336159
0.00216933020298
0.00477105525449
0.00484475204267
0.00131510229518
0.00491054736554
0.00486932206705
0.00186610292663
0.530899925019
0
0
0
0
0.531410509212
0.00148970470315
0.00491794787158
0.00492551101828
0.536516656066
0
0
0
0
0.536920921648
0.00205173053859
0.0047668791488
0.00465194619519
0.5290393275
0.00506947183301
0.00233004371081
0.0179188472503
0.0147674389962
0.532583642274
0.535270554488
0.0230213621686
0.0191074524932
0.037645001153
0.034135565616
0.538794127125
0.00944820921616
0.00601894485056
0.529333448094
0
0
0
0
0
0
0.532386614603
0.0136516043371
0.0105324470331
0.027432373122
0.0241936681632
0.535662062227
0
0
0
0
0
0
0
0
0
0
0
0
0.538389577407
0.0328359433125
0.0286994403705
0.528645117065
0.363746435487
0.362529555512
0.38076072178
0.379716736733
0.532978166067
0.534223321786
0.383477988735
0.381992210416
0.397544571348
0.396921255192
0.539471003425
0.372183866828
0.370528954086
0.530340185211
0.531829721528
0.374780987936
0.373574073125
0.389620731096
0.388704837182
0.536226003567
0.537388571383
0.391964180818
0.39068549657
0.365891603991
0.364772250776
0.528823378834
0.147103330458
0.148993426055
0.0032758816974
0.0168745066303
0.173958514967
0.175651812705
0.170710993188
0.1724101158
0.0158319823075
0.532769669538
0.378841375505
0.377872882632
0.386121854809
0.384871509395
0.534774542036
0.0217540533351
0.181927280779
0.183905315279
0.177559989692
0.179777949505
0.0204082988973
0.036542569126
0.202514686892
0.203830019702
0.199478028961
0.201059719843
0.0353458046597
0.539259191486
0.396210860557
0.395312912505
0.529793708643
0.36881762073
0.367186680488
0.376864357752
0.375813667836
0.532143664587
0.0263093034463
0.188451486184
0.190020488502
0.185561122589
0.18704971947
0.025269439544
0.535952671163
0.38794126463
0.387088247457
0.394362224986
0.393203324787
0.537882656807
0.0314893821966
0.195910259092
0.19780193505
0.191821781056
0.193861493347
0.0300824998396
0.00416749095923
0.150703641165
0.152502546258
0
0
0
0.154510628209
0.156845337403
0.0071127258101
0.00828498806041
0.159270109985
0.161609579537
0
0
0
0.16364605894
0.165459480903
0.0115659713834
0.0125818749247
0.167151987207
0.168932168532
0
0
0
0
0
0
0
0
0
0
0
0
0
0
0
0
0
0
0
0
0
0
0
0
0
0
0
0
0
0
0
0
0
0
0
0
0
0
0
0
0
0
0
0
0
0
0
0
0
0
0
4.32986979604e-15
0
1.27897692437e-13
1.01285646537e-12
0
0
0
0
5.15779481347e-08
9.56234202931e-08
6.54224245444e-07
6.31106826798e-07
0
0
0.0023559043172
0
0
0
0
0
0
0.539852348382
0.546028025266
0.00276328316611
0.00448833511729
0.00432643698215
0.00245797870985
0.542683900333
0
0
0
0
0.543010070186
0.00266018580377
0.00410068389607
0.00381633020082
0.540766996033
0.042446556605
0.0387232036566
0.0582225218884
0.0539644145249
0.544531706468
0.0477420734366
0.0438884409785
0.541335119926
0
0
0
0
0
0
0
0
0
0
0
0
0.544080548576
0.0525997327727
0.0488225751545
0.54000353555
0.398797588924
0.39810799216
0.411153261213
0.410241634876
0.545557199735
0.40441365486
0.403691657678
0.542316667437
0.543339334279
0.405791994124
0.405065796585
0.400718784705
0.399662663367
0.540300562254
0.0411017826164
0.208062508286
0.209863585395
0.205084099946
0.206456024055
0.0398534980398
0.0567240884803
0.2269872079
0.228652298407
0.223676549595
0.225296494919
0.0552989291863
0.545032305259
0.409286126509
0.408356556822
0.0465738960489
0.215017081223
0.216352733337
0.211744147267
0.213487555831
0.0452688266327
0.541867006326
0.402835854088
0.401816776936
0.407454034305
0.406601436494
0.543686057803
0.0512639528171
0.220457951355
0.222060614112
0.217581714586
0.21892978926
0.0499808062209
0
0
0
0
0
0
0
0
0
0
0
0
0
0
0
0
0
0
0
0
0
0
0
0
0
0
0
0
6.99440505514e-15
1.09912079438e-14
0
0
2.56239474083e-13
5.90194559891e-13
1.04694031222e-12
3.95461441371e-13
0
0
1.34277111541e-07
3.10680928428e-07
0
0.00295281747435
0
4.96936969685e-06
0
0.546525112236
0.551133527297
0.00336187237571
0.00353194433552
0.00313166472366
0.00307145507925
0.548413371502
0
0
0
0
0.548903432579
0.00323964682546
0.00282620103566
0.00241682989728
0.547273809932
0.0633706104425
0.0597512866311
0.0773615985425
0.0744347501737
0.550413171073
0.06790199841
0.0643237625032
0.547552621553
0
0
0
0
0
0
0
0
0
0
0
0
0.55009334129
0.0735019268443
0.0694095541527
0.546784248086
0.412708546178
0.412009828113
0.420980286389
0.420353779769
0.550941003844
0.416152104227
0.415417299861
0.548088991868
0.549477649768
0.417863931779
0.417002416959
0.413798709543
0.413311237237
0.547071232858
0.062366319039
0.23300153626
0.23404495004
0.230298939914
0.231717915285
0.0611061241706
0.0762078415979
0.247154210214
0.2484270699
0.245320155085
0.246097867102
0.0752282832284
0.55071733375
0.419838289153
0.419427767085
0.066547303119
0.237435445304
0.23889721131
0.235044211883
0.236141009134
0.0653433010901
0.547801848551
0.414812417981
0.414268691164
0.41903937441
0.418555087391
0.549917043923
0.0723358567568
0.243462801869
0.244493023416
0.240486402601
0.242058470169
0.0709246304732
0
0
0
0
0
0
0
0
0
0
0
0
0
0
0
0
0
0
0
0
0
0
0
0
0
0
0
0
0
0
0
0
0
0
0
1.11022302463e-14
2.44249065418e-15
1.10511599871e-12
0
0
5.14405740226e-10
2.59636103839e-07
0
0
0.00349053813884
3.9366082229e-05
8.14860170473e-05
0
0.551397120672
0.556770343585
0.003845465862
0.00204736482085
0.00156060972456
0.00364810398939
0.554243630942
0
0
0
0
0.554466689003
0.00372083005167
0.00117773755748
0.000549144953965
0.552709951332
0.083046861025
0.0788158818302
0.0979599164664
0.0945771021366
0.555228419198
0.0879257630486
0.0844085876941
0.553311828051
0
0
0
0
0
0
0
0
0
0
0
0
0.554983184235
0.0931727725398
0.0891558579843
0.55174694612
0.42244698927
0.42171498056
0.430571258509
0.430044331725
0.55627929445
0.426067512854
0.425591932193
0.553924330231
0.554588651423
0.427156115555
0.42660411914
0.423869494185
0.423183885826
0.552257753082
0.0817012368839
0.252843181453
0.254131617229
0.249947298001
0.251411529948
0.0802164735991
0.0969364115813
0.266827908084
0.267724043558
0.264758262374
0.265843076678
0.095796041948
0.555741343556
0.429475019275
0.428856487282
0.0867749694063
0.257495212181
0.258508567408
0.255367258568
0.256432866743
0.0855869135804
0.553751947965
0.425083781771
0.424534629143
0.428292083123
0.427738750585
0.554743160336
0.0917948804134
0.262204034666
0.263515389091
0.259665711279
0.260881051277
0.090385466541
0
0
0
0
0
0
0
0
0
0
0
0
0
0
0
0
0
0
0
0
0
0
0
0
0
0
0
0
0
0
0
0
0
0
0
0
0
0
0
0
0
0
0
0
0
0
0
0
0
0
0
0
0
0
0
0
0
0
0
0
0
0
0
0
0
0
0
0
0
0
0
0
0
0
0
0
0
0
0
0
0
0
0
0
0
0
0
0
0
0
0
0
0
0
0
0
0
0
0
0
0
0
0
0
0
0
0
0
0
0
0
0
0
0
0
0
0
0
0
0
0
0
0
0
0
0
0
0
0
0
0
0
0
0
0
0
0
0
0
0
0
0
0
0
0
0
0
0
0
0
0
0
0
0
0
0
0
0
0
0
0
0
0
0
0
0
0
0
0
0
0
0
0
0
0
0
0
0
0
0
0
0
0
0
0
0
0
0
0
0
0
0
0
0
0
7.32747196253e-15
2.0650148258e-14
2.39741559938e-12
0
0
2.21528428934e-09
3.21487209409e-07
0
0
0.00393720821333
0.000136605701734
0.000164382495943
0
0.5570246108
0.56181647152
0.00430393631291
0.000182468324675
0
0.0040677806914
0.558774025466
0
0
0
0
0.559178772732
0.00418949087448
0
0
0.557735191464
0.102760195574
0.0990650995913
0.118401712175
0.113456535537
0.5604807467
0.107690881869
0.104134810742
0.557988594385
0
0
0.0013685411263
0
0
0
0
0.00436997584598
0.00689230550178
0.00179904672783
0.0038602985483
0
0.560081785615
0.112064235846
0.108672497493
0.557189394497
0.431492248354
0.431037780161
0.439550728874
0.438725299937
0.561257326483
0.43446508572
0.434023836686
0.558354593999
0.559559366274
0.435247084212
0.4348826175
0.432557693518
0.432000708768
0.557442494745
0.101447789591
0.270726079851
0.271895440937
0.268641694339
0.269603638279
0.100146679643
0.280922070485
0.282459576766
0.115070413154
0.560914613239
0.437809554379
0.436920550825
0.106668265709
0.275320132983
0.276147622308
0.273149630022
0.274297385311
0.105456150496
0.558129837136
0.433673107403
0.433193578498
0.436170364709
0.435617410897
0.559776488307
0.110871675871
0.278526719733
0.279561860602
0.276895700716
0.277674718079
0.109742274759
0.116752224511
0.284056284287
0.285547769194
0
0
0
0
0
0
0
0
0
0
0
0
0
0
0
0
0
0
0
0
0
0.00012130262086
0
0
0
0
0
0
0
0
0
0
0
0
0
0
0
0
0
0
0
0
0
0
0.00072557497933
0
0
0
0
0
0
0
0
0
0
0
0
0
0
0
0
0
0
0
0
0
0
0
0
0
0
0
0
0
0
0
0
0
0
0
0
0
0
0
0
0
0
0.0024339176321
0
0
0
0
0
0
0
0
0
0
0
0
0
0
0
0
0
0
0
0.003252887148
0.00496293088262
0
0
0
0
0.0057973069066
0
0
0
5.10702591328e-15
6.5059069243e-14
3.24851257005e-12
0
0
4.38819836024e-09
3.97015293863e-07
0
0
0.00440370713412
0.000232234726151
0.000277726987497
0
0.562349936177
0.567233072536
0.00461272154087
0.56460107351
0
0
0
0
0.564737400809
0.00456780967987
0
0
0.563713082231
0.123790137694
0.119877244503
0.138520889265
0.133669143078
0.566136664854
0.128670077327
0.124935237878
0.563932145481
0
0.0166408575903
0.0198106284117
0.565748498606
0.132232254709
0.129559913846
0.562854615574
0.440842028038
0.440235880884
0.447911879392
0.447350123141
0.566969171406
0.443545531579
0.443258560776
0.564388953976
0.564933447612
0.44413886712
0.44380577771
0.441829610337
0.441392097847
0.563347385836
0.137136718205
0.300640106974
0.301648006876
0.566566838003
0.44672185983
0.446047908955
0.564150032278
0.442871840852
0.44236858337
0.445386133501
0.44473447464
0.565316052298
0.0138565919341
0.0159760407338
0
0.131361801514
0.295947867587
0.296957507379
0.294237941182
0.295038649375
0.130404838404
0.298171041261
0.299418514041
0.135431901912
0
0
0.00449562263905
0.0076617597298
0.0101139395852
0
0.12259046264
0.289000846308
0.289977519054
0.28682738265
0.287952587582
0.121268665275
0
0.0109162344327
0.0132814629902
0.290875784932
0.291824756158
0.126305264538
0.127585064805
0.29266328094
0.29345743419
0
0
0
0
0
0
0
0
0
0
0
0
0
0
0
0
0
0
0
0
0
0
0
0
0
0
0
0
0
0
0
0
0
0
0
0
0
0
0
0
0
0
0
0
0
0
0
0
0
0
0
0
0
0
0
0
0
0
0
0
0
0
0
0
0
0
0
0
0
0
0
0
0
0
0
0
0
0
0
0
0
0
0
0
0
0
0
0
0
0
0.00852831398153
0
0
0
0
0.00933559835647
0.0117590804833
0
0
0
0
0.0125620147345
0.014364328886
0
0
0
0
0.0151356945205
0.0176969589214
0
0
0
0
0.0188295024427
0
0
0
0
1.10800257858e-13
5.70998803795e-12
0
0
9.52799084075e-09
1.44180426487e-08
5.96061507374e-07
6.84079377478e-07
0
0
0
0
0.00466881278855
0.00460002554701
0.000366617961626
0.000444002461795
0
0.000542280194313
0.000615215033484
0
0.567569633044
0.5719327722
0.00471661475742
0.572100130903
0.575546617525
0.00428425546158
0
0
0.00469383616952
0
0
0.00447605601501
0.570153413214
0
0
0
0
0.570604600455
0.0047125295074
0
0
0.573551010474
0
0
0
0
0.573870474883
0.00439010436845
0
0
0.568313932135
0.142666495887
0.139626065914
0.156512922536
0.153752501969
0.571613478106
0.572663712896
0.159915446463
0.15736519059
0.173873085515
0.170331298809
0.574889779212
0.147159457208
0.143820296203
0.56868968333
0
0.0237423370399
0.0263989861752
0.0206470544241
0.0227183417465
0
0
0.0307598834211
0.0335648651341
0.0275422844368
0.0301947860832
0
0.571449849039
0.152866174891
0.148632832399
0.164248068135
0.16131488797
0.572843742654
0
0.0375502707828
0.0398651168846
0.0342574250602
0.0368036254332
0
0
0.0443608206853
0.0465764768127
0.0407757651549
0.04329133548
0
0.574587796076
0.168980741558
0.165394590332
0.567892423713
0.448837453092
0.448371564145
0.455794283845
0.45545650713
0.571768389272
0.572326040114
0.456523503558
0.456206037954
0.462276386844
0.461935561693
0.575363625902
0.452238745365
0.451607026591
0.569692482329
0.57098334921
0.453401742543
0.452786252209
0.458831705044
0.458279275374
0.573236346479
0.5740794945
0.459770760437
0.459324065254
0.44967282029
0.449318829146
0.568095711447
0.141709373344
0.304165358545
0.304992461013
0.302539044469
0.303312262225
0.140641834079
0.155649136363
0.315322237935
0.316028215993
0.313895513699
0.314580869604
0.154686449225
0.571695376048
0.455173030526
0.454803368263
0.457014638189
0.456764298123
0.57251441512
0.15903115704
0.31760031394
0.318191792066
0.316572725706
0.317082515085
0.158115514937
0.172871623166
0.327678784882
0.328098481642
0.32584178033
0.326926939304
0.171708743938
0.575147952088
0.461609326396
0.461157099964
0.146007022124
0.307965441639
0.30899698807
0.305917706119
0.3069364685
0.144861405194
0.569199508943
0.450916412908
0.450201160063
0.454475342078
0.453995977956
0.571261220955
0.151705235453
0.312136371692
0.313157182748
0.310025392803
0.311142792661
0.150349189511
0.163523085323
0.320583581516
0.321378291115
0.318908744964
0.319743098073
0.162580019924
0.572992464942
0.45771547151
0.457288327415
0.460667998372
0.460188883053
0.574262487194
0.167695117894
0.324118785566
0.324972871328
0.32228553125
0.323190968539
0.166605138234
0
0
0
0
0
7.77156117238e-16
0
0
1.11022302463e-15
0
0
0
7.77156117238e-16
0
0
7.77156117238e-16
0
0
0
0
6.66133814775e-16
0
0
0
0
0
3.33066907388e-16
0
0
0
5.55111512313e-16
0
0
0
0
0
0
0
0
1.22124532709e-15
0
0
0
0
6.66133814775e-16
0
0
0
0
0
9.99200722163e-16
0
0
0
0
0
0
0
0
0
0
0
0
5.55111512313e-16
0
0
0
0
0
1.44328993201e-15
0
0
0
0
0
0
0
0
0
0
0
0
0
1.33226762955e-15
0
0
0
0
0
0
0.0214241972674
0
0
0
0
0.0219946110546
0.024732325133
0
0
0
0
0.0254821958355
0.0285981687495
0
0
0
0
0.0294709594026
0.0317774772881
0
0
0
0
0.0326455982179
0.0350897856158
0
0
0
0
0.0359802641463
0.0380963174693
0
0
0
0
0.0389491866439
0.0415846355633
0
0
0
0
0.0422371637792
0.0453194000142
0
0
0
0
0.0461533577201
0
0
0
0
0
0
0
0
0
0
0
0
0
0
0
0
0
0
0
0
0
0
0
0
0
0
0
0
0
0
0
0
0
4.4408920985e-16
0
0
0
0
2.44249065418e-13
3.15414361296e-13
6.68909372337e-12
9.07274255724e-12
0
0
0
0
2.51892695591e-08
7.85707867101e-07
0
0
0.00421224804722
0.000702776226384
0.000781198613401
0
0.575774820859
0.578766791838
0.00409841023853
0
0
0.00415121170802
0.577595103515
0
0
0
0
0.577781907785
0.00412716277771
0
0
0.57670338329
0.177553812237
0.174834022528
0.188875801154
0.187080586204
0.578473821012
0.181457994205
0.178258443572
0.576864544237
0
0.0501315891806
0.0527049503413
0.0471941831744
0.0495681408848
0
0
0.0566819782831
0.0585224215233
0.0535562678585
0.0559525292429
0
0.578298032947
0.186129620127
0.182616646979
0.576116764424
0.463113251847
0.462657295798
0.467949136991
0.467821181766
0.578693673024
0.465323304571
0.46495965963
0.577359075819
0.577952972206
0.466084778132
0.465680266408
0.463998682643
0.463576129883
0.576446819056
0.176482890619
0.330307621256
0.331022231754
0.328845197573
0.329407208414
0.175754769886
0.188246617224
0.338338179391
0.338714903515
0.337596980134
0.337992865549
0.187685979559
0.578588965066
0.467613401767
0.467342574342
0.180352009332
0.332786681254
0.333526163066
0.331507299876
0.332059564203
0.179186003704
0.577107353986
0.464598910319
0.464327166779
0.467144509266
0.466611686171
0.578089469459
0.184809419839
0.335984311693
0.336743021266
0.334330945078
0.335171686605
0.183804660402
0
0
0
0
0
0
0
0
0
0
0
0
0
0
0
0
0
0
0
0
0
0
0
0
0
0
0
0
0
1.11022302463e-16
0
0
0
0
0
0
0
0
0
6.66133814775e-16
0
0
2.22044604925e-16
0
0
0
0
0
0
0
0
0
0
0
0
0
0
0
0
0
0
0
0
0
0
0
1.11022302463e-16
0
0
0
0
0
0
0
0
0
0
0
0
4.4408920985e-16
1.11022302463e-16
0
0
2.22044604925e-16
0
0
0
0
0
0
0.0480308948477
0
0
0
0
0.048829994917
0.0509488100839
0
0
0
0
0.0518797705298
0.0545264158952
0
0
0
0
0.0553430248035
0.0573798749522
0
0
0
0
0.058002971626
0
0
0
0
0
0
0
0
0
0
0
0
0
0
0
0
0
0
0
0
0
0
0
0
0
0
0
0
0
0
0
0
0
0
0
0
0
0
0
0
0
0
0
5.860867347e-13
1.07800435245e-11
0
0
3.34876909536e-08
9.82373441816e-07
0
0
0.00407440583448
0.000840187827524
0.000905440889546
0
0.578887393479
0.582547608176
0.00404929911843
0
0
0.00406038173363
0.580757158519
0
0
0
0
0.580990776158
0.00405319677722
0
0
0.579632189184
0.192664131929
0.189707022838
0.203135230879
0.200193179468
0.581795388297
0.196955740387
0.193815806081
0.579922919865
0
0.0627207305837
0.0651366867993
0.0593524473154
0.0617324806373
0
0
0.0682815772165
0.07081906546
0.0659340468625
0.067794245219
0
0.581571293406
0.199692774252
0.197658403449
0.579109545264
0.46842987446
0.468151183301
0.473812711256
0.473341346028
0.582295861909
0.471348913932
0.470926512079
0.580432734559
0.581138614971
0.471863264671
0.471643162222
0.469206225127
0.468758560836
0.579362372918
0.191596956099
0.340285481255
0.341029967369
0.339238246781
0.339774138011
0.190635939828
0.201822000517
0.347756347839
0.34846860187
0.346552487852
0.34713399126
0.20092160386
0.582046408432
0.472900331625
0.472589587012
0.196129929968
0.343708306163
0.344360879224
0.341967894943
0.342897260869
0.194894221897
0.58014838666
0.470400762161
0.469772215673
0.47233856012
0.472096303515
0.581367411383
0.199105657268
0.345642634045
0.346050299121
0.344893027291
0.345270298114
0.198462568608
0
0
0
0
0
0
0
0
0
0
0
0
0
0
0
0
0
0
0
0
0
0
0
0
0
0
0
0
0
0
0
0
0
0
0
0
0
0
0
0
0
0
0
0
0
0
0
0
0
0
0
0
0
0
0
0
0
0
0
0
0
0
0
0
0
0
0
0
0
0
0
0
0
0
0
0
0
0
0
0
0
0
0
0
0
0
0
0
0
0
0
0
0
0
0
0
0
0
0
0
0
0
0
0
0
0
0
0
0
0
0
0
0
0
0
0
0
0
0
0
0
0
0
0
0
0
0
0
0
0
0
0
0
0
0
0
0
0
0
0
0
0
0
0
0
0
0
0
0
0
0
0
0
0
0
0
0
0
0
0
0
0
0
0
0
0
0
0
0
0
0
0
0
0
0
0
0
0
0
0
0.0603929672599
0
0
0
0
0.0610887505771
0.0636834342114
0
0
0
0
0.0643449544921
0.0667703574667
0
0
0
0
0.067340610197
0.0691660599975
0
0
0
0
0.0702350690858
0
0
0
0
0
0
0
0
0
0
0
0
0
0
0
0
0
0
0
0
0
0
0
0
0
0
0
0
0
0
0
0
0
0
0
0
0
0
0
0
8.14015521655e-13
1.59026125601e-11
0
0
5.11563310601e-08
1.04855480076e-06
0
0
0.00404801366458
0.000993192419182
0.00106586747988
0
0.582774554171
0.586372353246
0.00405663992938
0
0
0.00404843653045
0.584294779435
0
0
0
0
0.584496190655
0.00405133035409
0
0
0.583574561356
0.207666978164
0.204470015969
0.215929162282
0.212898054516
0.585440712298
0.209283733756
0.208259578484
0.583742200331
0
0.0756287254911
0.0767062231613
0.0718942045317
0.0750977017196
0
0
0.080500114784
0.0829741132488
0.0772695930917
0.0798215207621
0
0.585168537776
0.211969586502
0.209804044363
0.58298750613
0.474968209908
0.47440711269
0.479612215753
0.479077763349
0.585959517228
0.476699790495
0.476469053175
0.584089033911
0.584639278882
0.476964406387
0.47682851968
0.475713240636
0.475401705236
0.58331824712
0.206807861135
0.351046253997
0.351537971486
0.349256132452
0.350297987401
0.205719826117
0.214959009334
0.356607203667
0.357358002493
0.355128528662
0.355863255556
0.213900785827
0.585634913148
0.47861410547
0.47817844906
0.208962528842
0.352637085218
0.35282984183
0.351934873941
0.352305989316
0.208699385457
0.583893991784
0.476204359741
0.475949450731
0.477735608362
0.477306152495
0.584847109976
0.211269750349
0.354018462775
0.354382682233
0.35310088309
0.353512710952
0.210503067097
6.66133814775e-16
4.4408920985e-16
0
0
0
0
0
0
0
0
0
0
0
0
0
0
0
0
0
0
0
0
0
0
0
0
0
0
0
0
0
0
0
0
0
0
0
0
0
0
0
0
0
0
0
0
0
0
0
0
0
0
0
0
0
0
0
0
0
0
0
0
0
0
0
0
0
0
0
0
0
0
0
0
0
0
0
0
0
0
0
0
0
0
0
0
0
0
0
0
0.0731229948274
0
0
0
0
0.0742791427775
0.075946938726
0
0
0
0
0.0763689496655
0.077958335309
0
0
0
0
0.0791464530413
0.0810273984406
0
0
0
0
0.0820133194143
0
0
0
0
0
0
0
0
0
0
0
0
0
0
0
0
0
0
0
0
0
0
0
0
0
0
0
0
0
0
0
0
0
0
0
0
0
0
0
0
1.00353059196e-12
1.91531235316e-11
0
0
6.37750205978e-08
1.08643084129e-06
0
0
0.00406582082098
0.00114215177612
0.00122451160376
0
0.586737499519
0.588923822907
0.00408895425697
0
0
0.00407431614835
0.588323481643
0
0
0
0
0.588412701793
0.00408434341501
0
0
0.587590114173
0.219863194949
0.21681975043
0.227500489981
0.226055995349
0.588743351025
0.223760493107
0.220979186528
0.587793122315
0
0.0876041816455
0.0899320394384
0.0838818659798
0.0866138759782
0
0
0.0933340883836
0.0949892380052
0.0908056198253
0.0927301967496
0
0.588692417916
0.225544754613
0.224398487379
0.587088117729
0.480721880523
0.480180962585
0.484610368838
0.484436221576
0.588887731476
0.483362565656
0.483112221552
0.588219313677
0.588518900939
0.483700641131
0.483560616673
0.481794296364
0.481261048565
0.587368974584
0.218774724589
0.359583947354
0.360369874983
0.3581012371
0.358822551652
0.217757264919
0.227027303047
0.364741897117
0.365025942332
0.364106241802
0.364424551166
0.226564530831
0.588828079035
0.484291276803
0.484136999282
0.222970344011
0.362486690156
0.362961346254
0.361142727764
0.361870103953
0.22201016965
0.588045695169
0.482757259959
0.48230960539
0.483982968337
0.483844837184
0.588619249458
0.225096604766
0.363708351898
0.363902137323
0.363306999578
0.363520486562
0.224761640088
1.44328993201e-15
9.99200722163e-16
0
0
0
0
0
0
0
0
0
0
0
0
0
0
0
0
0
0
0
0
0
0
0
0
0
0
0
0
0
0
0
0
0
0
0
0
0
0
0
0
0
0
0
0
0
0
0
0
0
0
0
0
0
0
0
0
0
0
0
0
0
0
0
0
0
0
0
0
0
0
0
0
0
0
0
0
0
0
0
0
0
0
0
0
0
0
0
0
0.0848345292218
9.77421712864e-05
0
0.000896986455819
0.000444213208192
0.0856707316534
0.0884285351382
0.00160901793378
0.00123644629005
0.00253280133989
0.0021060382751
0.0891889775022
0.0915850044039
0.00332490322313
0.00299738347639
0.00409392656578
0.00370807790765
0.0922018981118
0.0939108605786
0.00481372760287
0.00445376638868