/*--------------------------------*- C++ -*----------------------------------*\
  =========                 |
  \\      /  F ield         | OpenFOAM: The Open Source CFD Toolbox
   \\    /   O peration     | Website:  https://openfoam.org
    \\  /    A nd           | Version:  8
     \\/     M anipulation  |
\*---------------------------------------------------------------------------*/
FoamFile
{
    version     2.0;
    format      ascii;
    class       volScalarField;
    location    "1e-05";
    object      O2;
}
// * * * * * * * * * * * * * * * * * * * * * * * * * * * * * * * * * * * * * //

dimensions      [0 0 0 0 0 0 0];

internalField   nonuniform List<scalar> 
49758
(
4.59127754726e-54
1.47092693756e-50
1.08682182473e-46
4.90885967489e-43
9.52822025533e-40
5.22057138204e-36
1.2173247522e-32
8.56109904926e-29
9.97880348332e-26
7.24304044611e-23
0
2.34405996259e-22
5.99032871205e-19
1.25701547813e-18
0
0
0.00963081540953
0.0429099831127
0
0
3.46422872637e-12
7.13126045796e-16
0
7.62080720489e-19
1.18247493434e-17
0.0323271355713
1.52774831369e-10
1.73665200873e-16
3.06209085379e-08
3.96591321031e-10
0.03359952154
7.18480529299e-16
2.4108778348e-11
2.10246367173e-09
0.0221125716406
0
0
1.78973889624e-05
1.44762917056e-05
0.0395352481737
1.05854735543e-15
2.49405900767e-14
0
9.58104159722e-14
0
0
5.61326161138e-06
4.11195838169e-07
0.0258678221433
0
2.78417246003e-08
2.88731440973e-07
0
0
0
2.48703656456e-08
5.17727170826e-07
5.72338041141e-07
3.00562999153e-07
3.87044144399e-07
1.56828761208e-08
0.03731501307
1.32083131961e-05
8.11036813737e-06
1.69474476505e-15
4.90929225196e-15
7.90242326478e-16
1.30196968676e-09
9.00121989317e-14
7.51288517193e-14
0
4.47126695087e-13
1.07884981715e-09
0.0147298367638
0
0
0.00404773696389
0.00379025842095
0.0421586533137
0.00160745020787
0.00119631176422
0.0305436770237
1.77664718493e-11
1.20775527486e-09
2.21183214642e-09
4.95219497204e-09
1.90844544879e-08
0
0.0345615685826
0.00227716787429
0.00182556885097
0
4.22646840992e-12
4.43255109968e-12
0
0
0.0182895027082
0
0
0
0
0
0
1.67352337234e-05
0.00019868484951
0.000220955596261
0.000169743299836
0.000187882551388
1.58860767036e-05
0.0402172333896
0.00350444135998
0.00327401786432
1.2667971623e-13
1.07420256833e-14
5.76426302933e-15
3.67050761503e-06
6.04143537774e-05
8.02167475743e-05
1.18560944327e-05
2.56488320498e-05
1.26407749752e-06
0.0272881573728
0.000567602268238
0.000354849494232
6.95578695194e-08
5.63286334791e-09
6.56345913455e-10
2.78110579235e-08
1.056173246e-08
1.72453927727e-07
0
0
0
0
0
0
0.00292733810399
0.00261078255076
0.0363968382471
1.16710578871e-05
0.000145401375912
0.000160129697306
0.000122822056393
0.000139282415363
9.98608362033e-06
0
1.53587225475e-11
4.36180413967e-10
9.70678640124e-14
1.17334806839e-12
0
1.59514293813e-11
4.86860108223e-11
2.4332068012e-12
1.70615974647e-50
6.40674606526e-47
3.77253552479e-43
1.49511282885e-39
6.05696962304e-36
1.89080192284e-32
5.13652031135e-29
2.37225831744e-25
3.13796367101e-22
3.02575552104e-19
1.17959672088e-16
6.92770893338e-15
1.01506848414e-11
3.29815782159e-13
5.09899495322e-13
1.51506656568e-14
0.0445322627728
0.0718194326487
2.32740895745e-11
1.18375726764e-09
1.28838069707e-09
1.88452361026e-11
0.056833242664
4.01098834897e-08
3.53859812586e-08
4.76026936875e-08
4.22239237505e-08
0.0587172428338
2.19289327664e-11
1.35136330082e-09
1.39421330838e-09
0.0495351662402
2.20706835397e-05
1.86675845024e-05
4.31822286943e-05
3.59022983439e-05
0.0663205213437
2.75179107581e-05
2.2903908616e-05
0.0513186453427
3.88280426443e-08
7.24219469683e-07
8.26573406835e-07
6.36426704208e-07
6.93209742122e-07
3.7269611995e-08
4.6145199328e-08
1.09155955278e-06
1.16509886773e-06
8.66507210784e-07
9.95323894368e-07
4.35139558629e-08
0.0642938694177
3.46058498295e-05
2.85732380255e-05
0.0462874602112
0.00449552095751
0.00433411815707
0.00840356028477
0.00808848132848
0.0700059908125
0.00603016320272
0.00586166481828
0.055124078811
0.060595475469
0.00669899207438
0.00632605461953
0.00512249904214
0.00487901005883
0.0478634752471
2.07052844789e-05
0.000286694865717
0.000308335227797
0.000233736165923
0.000265767910561
1.9991576721e-05
3.99960258682e-05
0.000596914858588
0.00065572791169
0.00053687886598
0.000568833354582
3.84843089816e-05
0.0682008179406
0.0077784988495
0.0074636547499
2.60287040597e-05
0.000367962129488
0.000406227526869
0.000319849032231
0.000354959191705
2.46590401771e-05
0.0532949116907
0.00561859524819
0.00536291153085
0.00719789170852
0.00697560180686
0.062456541043
3.21284352279e-05
0.000491020258469
0.000520189721726
0.000432111263855
0.000446795360647
3.06362872243e-05
1.38370478549e-48
9.44798790157e-45
4.43702631083e-41
1.48612509333e-37
6.54966699946e-34
1.90300370243e-30
3.88842980261e-27
6.91694200031e-24
5.43381374693e-21
3.33493305696e-18
3.26170560361e-16
1.90782274948e-14
2.31240137416e-14
2.40324921803e-11
3.15789643974e-11
5.45332473375e-13
5.57153531974e-13
2.27616860907e-14
5.85532331312e-13
5.97487508575e-13
2.32658857133e-14
0.0740486825945
0.104527784798
2.97667385104e-11
0.106536951043
0.135271366116
3.79907270638e-11
1.47130096132e-09
1.52177590577e-09
2.63658453774e-11
1.80855542688e-09
1.92460974565e-09
3.34800745569e-11
0.0881757336658
5.78848204666e-08
5.05462897175e-08
7.60995186083e-08
6.37697171722e-08
0.0901663295846
2.8044022364e-11
1.65194465414e-09
1.71443597152e-09
0.120571243088
1.04561585322e-07
8.06540683053e-08
1.47835849706e-07
1.12269056702e-07
0.122141380305
3.56219706793e-11
2.11344964235e-09
2.33129422086e-09
0.0796320418349
5.40650917734e-05
4.51592399441e-05
0.000107791655971
8.98942991981e-05
0.0981439084559
0.112406898153
0.000130314485286
0.000113711966919
0.000243170601539
0.000209789490188
0.128513951257
6.89152578874e-05
5.6683060294e-05
0.0816200832097
5.58875701121e-08
1.52128133012e-06
1.64351447961e-06
1.23952340674e-06
1.33289854117e-06
5.22294755753e-08
7.06970674172e-08
2.46289166484e-06
2.61189470846e-06
1.97392380096e-06
2.205889212e-06
6.81324696462e-08
0.096204887277
8.68350471449e-05
7.20452108817e-05
0.000161001811208
0.000137345759771
0.114223897976
9.48887174822e-08
3.61399460923e-06
4.26192403231e-06
3.0726006562e-06
3.41611163653e-06
9.07509920525e-08
1.33607258145e-07
7.07163567552e-06
1.00631565687e-05
4.76589336432e-06
5.96324059557e-06
1.25096639815e-07
0.126514816259
0.000195944486295
0.00017348730509
0.0761345445467
0.00913110160729
0.00877514826328
0.0154681577892
0.0149955101073
0.10275884406
0.108688514946
0.0165884356063
0.0160279933132
0.0257360799026
0.0249979165296
0.133148223408
0.0115016694124
0.0110930767183
0.0861020669955
0.092341050265
0.0123829924949
0.0119253283732
0.020272965742
0.0195933423911
0.118453826698
0.123780750174
0.0214185109307
0.0208304535481
0.0098059217441
0.00950494776492
0.0780356271639
5.07185759768e-05
0.000761730495194
0.000820077763964
0.000693618175995
0.000723689900809
4.83172397697e-05
0.000101294379629
0.00141179361036
0.00145856917871
0.00123925164592
0.00134428904213
9.87343359381e-05
0.100459876005
0.0144208296061
0.0138445614901
0.0177035215291
0.017137621748
0.110518850975
0.000125520267894
0.00166533376671
0.00170045586635
0.00152055944157
0.00161486519761
0.000118649880278
0.000225724744202
0.00271949460372
0.00283426068604
0.00251019092418
0.00259433306997
0.0002197960165
0.131004718784
0.0241414404985
0.0231937112162
6.36985525113e-05
0.000929524173607
0.00100818851116
0.000856009503581
0.000901016535829
6.12161422202e-05
0.0838261190956
0.0106447000333
0.0101936966086
0.0133319793242
0.0129084034763
0.094504883826
8.30389321529e-05
0.0011368172104
0.00120605829499
0.00103408319238
0.00110888730448
7.93346304633e-05
0.000154575568176
0.00194982846156
0.00212929953999
0.00179426218475
0.00189018256831
0.000150042223236
0.116136651769
0.0188522343087
0.0183137142446
0.022496240701
0.022027803754
0.125168514125
0.000191836089845
0.00238033671301
0.00246113133577
0.00219442695824
0.00223617054182
0.000184625646929
4.60996851125e-06
4.60578931069e-06
9.25100008639e-06
7.68646927978e-06
4.60291409956e-06
4.60856068932e-06
4.62497151791e-06
4.63275413428e-06
5.41631625771e-06
5.48594555234e-46
2.31046419818e-42
9.25474616671e-39
2.99127694723e-35
1.40287711833e-31
3.16535512498e-28
3.82424721426e-25
2.4617007384e-24
2.72324079408e-22
6.86171095461e-22
4.87911802661e-20
6.98704062576e-20
6.21827801864e-18
7.64676631847e-18
4.05519589129e-16
4.08519362815e-16
2.35832006245e-14
3.92920196382e-11
6.24070303821e-13
6.55670689556e-13
2.40389067466e-14
0.136984631862
0.162824232842
4.92307547443e-11
2.55908153679e-09
2.72698678188e-09
4.28325706396e-11
0.150892651765
2.06668083071e-07
1.68599184267e-07
2.65956178197e-07
2.25587347492e-07
0.152606153835
4.46688236166e-11
3.08370442125e-09
4.05072473995e-09
0.14292174896
0.000287094736211
0.000248594833703
0.000482833834469
0.000435002370195
0.158873611486
0.000350280749748
0.000305989527058
0.144738912389
1.91658737854e-07
1.56986223215e-05
2.10670044754e-05
1.0752650758e-05
1.50194929847e-05
1.73601652718e-07
2.57600419341e-07
2.94175604578e-05
3.37089657703e-05
2.27865369416e-05
2.65329076771e-05
2.4118691583e-07
0.157231398766
0.000416984187633
0.00035827142758
0.138833661483
0.0273155714006
0.026506600896
0.0398201161895
0.0390214184455
0.161475678114
0.0328653239203
0.031798424794
0.148790042563
0.154069986533
0.0346211136235
0.0338415097834
0.029038884654
0.0281894965063
0.140879113332
0.000280682140754
0.00317321478814
0.00330174465118
0.00293267104084
0.00305115311462
0.000267778042765
0.000463733187488
0.00497807022675
0.00510540612138
0.00467330816574
0.0048361946234
0.00045378941762
0.160247802668
0.0382516419489
0.0374292963335
0.000334926974255
0.00371597521365
0.00388312027835
0.00344307064354
0.00357664415278
0.000320070773456
0.146623256076
0.0307600207306
0.0299199113225
0.0363941400613
0.0354554142204
0.155572970543
0.000388400394335
0.00434015876515
0.00449388561025
0.00403554230144
0.00420330916549
0.0003770437802
5.19981054255e-06
5.10023337288e-06
2.48993636535e-05
3.09040596935e-05
5.43781139039e-06
5.33030077538e-06
5.5991372614e-06
5.51872374821e-06
3.23010457152e-05
2.38378062109e-05
5.02879585407e-06
4.96568322289e-06
4.91722224023e-06
4.81801545303e-06
1.88783687491e-05
1.73118001728e-05
4.7829768301e-06
4.70933741427e-06
4.6826747774e-06
4.64501852186e-06
1.34357190083e-05
1.15723384297e-05
4.62916681474e-06
4.61785320824e-06
3.70773528971e-44
2.20925797057e-40
1.16429831138e-38
8.88276016965e-37
2.90685125044e-35
2.10879704606e-33
5.08863569357e-32
3.50222882656e-30
2.91051751642e-29
4.24247684279e-27
2.94999655181e-26
1.01047453721e-23
1.09921077665e-21
8.5472447336e-20
8.55073591519e-18
4.13755295852e-16
2.42204626624e-14
6.20444400722e-11
7.03431735969e-13
8.37055368079e-13
2.47163658752e-14
0.164519566021
0.183139394785
8.37699607063e-11
4.35166436566e-09
5.0274933159e-09
6.77978805213e-11
0.174585826611
3.43645373158e-07
2.85482933949e-07
4.16629809199e-07
3.55697887017e-07
0.175817351034
7.50855107587e-11
5.53530151271e-09
6.27740200218e-09
0.169217015155
0.000575409840099
0.000504247994185
0.000901316020186
0.0008127332111
0.1802040294
0.000676993677281
0.000599402182739
0.170556450752
3.25239031472e-07
4.52145377704e-05
5.2847959636e-05
3.6222048048e-05
4.23342881729e-05
2.96577306211e-07
4.0223932048e-07
6.68712024034e-05
7.68097534644e-05
5.58880070188e-05
6.3693818111e-05
3.68519637853e-07
0.179136560341
0.000791531418174
0.000694297582984
0.166303744263
0.042061066736
0.0409352608182
0.0559168365408
0.054930550737
0.182097363163
0.0483475553496
0.0473702369166
0.173335729075
0.176923816541
0.0502162397887
0.0493413054968
0.0441379821767
0.0431903371862
0.167908944789
0.000551430029132
0.00569430421131
0.00586507073051
0.00530341006493
0.00549027148588
0.000515636086167
0.000882731344224
0.00820760493305
0.0084295627689
0.00778496348482
0.0079837828479
0.000830550741282
0.181126493171
0.0540033375282
0.053152334435
0.000650234256434
0.00654878442325
0.00676370997666
0.00607680850707
0.00629634399982
0.000624220508776
0.171966144127
0.0462416102043
0.0451645993838
0.052143865689
0.0511767558791
0.17803991977
0.000762416905409
0.00735281865563
0.00755375167317
0.0069788615621
0.00715229137048
0.00071313383972
3.78739826894e-05
5.90762269151e-06
5.75138950911e-06
6.17140138382e-06
6.06650447823e-06
4.05859228224e-05
4.76818587779e-05
6.57452224768e-06
6.31384575945e-06
7.1040331687e-06
6.83531503151e-06
5.05947041188e-05
5.81215624881e-05
7.41550167107e-06
7.29805990347e-06
7.7224522732e-06
7.50837179912e-06
6.10773868004e-05
6.98874898983e-05
8.26937257776e-06
7.9758411123e-06
8.79520506145e-06
8.50820686483e-06
7.33984689424e-05
3.23762296822e-42
1.12832334089e-40
3.33480812936e-37
8.20683440605e-34
4.21224579087e-31
1.961288428e-28
1.12167949094e-25
1.63119233569e-23
1.34927577154e-21
9.51358067088e-20
8.84044742173e-18
4.26842193384e-16
2.56336948782e-14
9.41386268742e-11
9.3661550718e-13
1.01792063449e-12
2.6229619536e-14
0.184297442351
0.196521463315
1.23039358451e-10
7.10714609807e-09
7.7400341538e-09
1.04368884969e-10
0.190584304421
5.12334652771e-07
4.32593621418e-07
6.68527484047e-07
5.65380990462e-07
0.191534960706
1.10382182313e-10
8.62814956627e-09
9.74339607162e-09
0.187142331946
0.00103269136778
0.000938121098194
0.00157478369333
0.00141534030629
0.194596603702
0.00121328958809
0.00109617261714
0.187911798294
4.92009243477e-07
9.58307232551e-05
0.000108630307143
8.0697716852e-05
9.24712231988e-05
4.74224093231e-07
6.13256346104e-07
0.000133553302319
0.000155119045615
0.000112743354035
0.000129965834134
5.87890126456e-07
0.193855894474
0.00136745298285
0.00123656292106
0.185360691257
0.0581793801909
0.0570809156986
0.0720517564309
0.0711441126224
0.195894766197
0.0640916428303
0.0629368596644
0.189632031903
0.192368776793
0.0662612059497
0.06530639648
0.0600710749109
0.0592578167701
0.186351395111
0.00101261619911
0.00922054725772
0.0094272619918
0.00869743060655
0.00895220476111
0.000993204528168
0.00153191792481
0.012473199947
0.0127437066099
0.011876194087
0.0121554580913
0.00148195285736
0.195274099279
0.0701677586446
0.0692018696219
0.00117280306206
0.0101898158631
0.0104844208678
0.00965301555429
0.00987948792248
0.00113415900918
0.188711837783
0.06178225397
0.0608945561977
0.0681035914827
0.0672107781708
0.193131282809
0.00134816655877
0.0113147265397
0.0115517755402
0.010812512205
0.0110512672433
0.00128375133276
8.32646496692e-05
9.35847493995e-06
9.06324840638e-06
9.9650377136e-06
9.66282439688e-06
8.77347089299e-05
9.8572580574e-05
1.06488352342e-05
1.03075658248e-05
1.14850699784e-05
1.10692754424e-05
0.000103534213637
0.000119097244312
1.23986536433e-05
1.19074152493e-05
1.33063807247e-05
1.27699012852e-05
0.000125403933049
0.000137778720809
1.43048146962e-05
1.37636410856e-05
1.54919202535e-05
1.49857591415e-05
0.000145535798385
1.04336338394e-38
1.05456144616e-35
1.48243369955e-32
5.25496651356e-30
1.21937052409e-27
2.26200135672e-25
2.02518198854e-23
1.72170777738e-21
1.01770231134e-19
9.44504237009e-18
4.57036388926e-16
2.72528811263e-14
1.30179205362e-10
1.08221097842e-12
1.26102188131e-12
2.80849740035e-14
0.197235917412
0.205378372535
1.74152953374e-10
1.04905096194e-08
1.20564504823e-08
1.45672117103e-10
0.201512731968
8.27853161543e-07
6.90635988768e-07
1.10457179792e-06
9.24025726505e-07
0.202024742352
1.54792011358e-10
1.31007885353e-08
1.52886934966e-08
0.199113408089
0.00179502027877
0.00162735602613
0.00250774088407
0.00234093988156
0.203860174482
0.00203134153692
0.00182214507364
0.199715913578
7.91143530015e-07
0.000182845211832
0.000202872601194
0.000157800188394
0.00017814304637
7.59499243347e-07
1.05567437205e-06
0.000246883759468
0.000274403379933
0.000212563541436
0.000237651105588
9.55856968684e-07
0.203379891613
0.00227448834188
0.00207981535283
0.197932930253
0.0742667059653
0.073203219759
0.0878957914832
0.0868582936498
0.20486729828
0.0802934549666
0.0792777445594
0.200969486306
0.202460799766
0.0820786330489
0.0812839956938
0.0761030855864
0.0753091773758
0.198566916377
0.00174989785163
0.0137366846633
0.0139741154907
0.0131015319315
0.0134055180003
0.00166295126076
0.00247318162346
0.0176910689871
0.0180588974964
0.0169534842165
0.0172926782539
0.00240755919004
0.204351357446
0.0858023873475
0.0848414735799
0.00197272464828
0.0149883505529
0.0153134870162
0.014291501844
0.0145931962591
0.00191190038658
0.200328101292
0.0780872656683
0.077091102386
0.0838687216257
0.0829975362143
0.202925733608
0.00221165202996
0.0162738477761
0.0165854426904
0.015662061707
0.0159297142609
0.00211243756442
0.000163801197057
1.67834721403e-05
1.61817815186e-05
1.82696442779e-05
1.76373824782e-05
0.000170133404341
0.000189025357794
1.93212242862e-05
1.88829643823e-05
2.08325481062e-05
1.99168248574e-05
0.000196186471196
0.000220935259082
2.25562333497e-05
2.16512697809e-05
2.42132040656e-05
2.33332429086e-05
0.000229340095087
0.000253489690272
2.59823088552e-05
2.4859036538e-05
2.76889827268e-05
2.67277628154e-05
0.000265270075924
1.71453344352e-37
1.09751350506e-34
7.89442398944e-32
1.59832484135e-29
2.53404247753e-27
3.01782371844e-25
2.84641142608e-23
1.86740446304e-21
1.09813248406e-19
9.69768850275e-18
4.73417468129e-16
2.86672799083e-14
1.85344672847e-10
2.68964416024e-10
1.35255367002e-12
1.60977897983e-12
3.01956840493e-14
0.205850448907
0.211071964432
2.51473520259e-10
0.211416827709
0.215096530311
3.77307596446e-10
1.64851943103e-08
1.86997628057e-08
2.08931848146e-10
2.53848533769e-08
2.92743840638e-08
3.06232312297e-10
0.208669242834
1.4077780058e-06
1.15641800778e-06
1.85855662439e-06
1.53153972778e-06
0.20911310509
2.22417336299e-10
2.00972075242e-08
2.39020107028e-08
0.21332592569
2.47603341574e-06
2.01553590478e-06
3.34357365761e-06
2.78920996171e-06
0.213567839318
3.2907556275e-10
3.22382727202e-08
3.84111637625e-08
0.206912861958
0.00278036081332
0.0025789634263
0.00375452243263
0.00351272380689
0.210337040338
0.212473737815
0.00415887758912
0.00385309155471
0.0054320954155
0.00511209912646
0.21467177837
0.00310034967526
0.00285635520872
0.207294358968
0.000281013581277
0.000315328908191
1.21765256577e-06
1.74421673331e-06
0.000417795867361
0.000451927557282
0.210081899839
0.00342174024527
0.0031831593795
0.00453145646144
0.00426409078742
0.212733781743
2.34136189752e-06
0.000528483501127
0.000581336979447
0.000470827546156
0.000510141230439
2.14839748404e-06
3.08623468411e-06
0.000665727964457
0.000712089686078
0.000596492550835
0.000646900622072
2.9823622136e-06
0.214445041514
0.00499957097969
0.00463875420918
0.206237276825
0.0897718365814
0.0889109871337
0.102652097033
0.101853509993
0.210818283384
0.211775710393
0.104724864799
0.103642740908
0.117022465843
0.1164107337
0.215033426781
0.0957806745264
0.0946454472787
0.208199989324
0.209496194934
0.0977731483248
0.0968598113715
0.109981512534
0.109231531331
0.213135479666
0.213859536712
0.111910144611
0.110927800673
0.091383883377
0.0905859193967
0.206588250345
0.0184450609206
0.0187673950616
0.00264246248523
0.00367878667817
0.0239438067618
0.0242986532356
0.0232040488133
0.0235609721718
0.0035908326233
0.210564828851
0.101071149423
0.100317859246
0.106823358196
0.105847446747
0.212148729255
0.00406230068336
0.0258328455009
0.0263002590427
0.0247727718644
0.025274807317
0.00394807379562
0.0053394350548
0.0314028791469
0.0317829360424
0.0304956486022
0.0309486855973
0.00522281050896
0.214930584759
0.115641614315
0.114838280316
0.207718727421
0.0934251001253
0.0923405488595
0.0994612993004
0.0986503673553
0.209816845962
0.00444161785867
0.02750072226
0.0278813733281
0.0267560626804
0.027109431609
0.00434607385002
0.21294875571
0.108450890558
0.10772392797
0.113928194885
0.11296878716
0.214158147974
0.00487872254105
0.0294826460234
0.0300062145199
0.0283776042389
0.0289117500879
0.00475913261898
0.00271579577335
0.019097863013
0.0194088400758
1.33139096412e-06
0.000319721138146
0.000355911247592
0.0198078403143
0.0202461029349
0.00293089162244
0.00301644986444
0.0207574233508
0.0212169844734
0.000369119631758
0.000406292568986
1.63577302306e-06
0.02166253559
0.022022040715
0.00326122969923
0.00334190458061
0.0224085043288
0.0227732023536
0.000299269226921
3.02052409149e-05
2.90551995624e-05
3.21407031789e-05
3.12390524531e-05
0.000308544595157
0.000336506972194
3.52231957776e-05
3.4391324998e-05
3.76050962851e-05
3.65496807657e-05
0.000348599802347
0.000382873742266
4.00275014049e-05
3.88676123992e-05
4.29581589667e-05
4.1538932922e-05
0.000388515906397
0.000430352916612
4.59818604377e-05
4.44920857517e-05
4.95791560388e-05
4.79539215835e-05
0.000443563751298
0.000480039770889
5.21505109982e-05
5.10755491708e-05
5.59632515744e-05
5.46171173074e-05
0.000498415429076
0.000538788581784
6.08424558743e-05
5.81719156911e-05
6.53734809242e-05
6.33548258515e-05
0.000557075064279
0.000609833898813
6.99296746992e-05
6.78388028869e-05
7.35890127536e-05
7.16718856984e-05
0.000620111458217
0.000677292982818
7.80041200965e-05
7.61811449849e-05
8.40935445101e-05
8.12611620432e-05
0.000701955087959
1.74747190607e-36
6.16848308269e-34
2.03270981437e-31
2.96703390469e-29
3.30137416544e-27
3.87169860145e-25
3.07975250204e-23
2.0620177103e-21
2.21722925824e-21
1.12780313355e-19
1.21038525685e-19
1.01674224959e-17
1.04266766088e-17
5.09478031596e-16
5.24772162468e-16
3.08636284607e-14
3.28512792375e-14
4.06554451746e-10
1.7772991416e-12
1.94282951373e-12
3.20900337203e-14
2.20651923577e-12
2.75420457824e-12
3.49171894731e-14
0.21517125675
0.217391545349
5.92668399366e-10
4.23555761335e-08
5.01828114637e-08
4.68478705025e-10
0.216299419864
4.19571375887e-06
3.48869458658e-06
5.66063225041e-06
4.71303800679e-06
0.216422080022
5.07770419774e-10
5.57747884336e-08
6.80772636892e-08
0.215520344006
0.00588992806417
0.00554866589263
0.00753391998528
0.00707919891121
0.216925361025
0.00642599695408
0.006041438594
0.215752648988
4.00072995645e-06
0.000808113145343
0.000887111430056
0.000732661526467
0.000786780791682
3.69011647738e-06
5.39273296689e-06
0.00100201603572
0.00107886475151
0.000908317226874
0.000977855192476
4.87781808558e-06
0.216781598519
0.0069304897382
0.00653497953613
0.215218937117
0.118341194386
0.117686723167
0.129873368935
0.129019368957
0.217246814038
0.123468617456
0.122761458636
0.216148412827
0.216543041012
0.1248712296
0.124154824203
0.120055747837
0.119178473257
0.215331366234
0.0057705105753
0.0330712281624
0.0336123286135
0.0321793456102
0.0325744918081
0.00563931411033
0.0073755929798
0.0393340259294
0.0399358019541
0.0381584151783
0.0387284718538
0.00721453903277
0.217078795124
0.128131801798
0.127284592381
0.00630623686455
0.0352757599372
0.0357052213354
0.0342146919917
0.0347675149306
0.00617351462701
0.215963874227
0.121928577141
0.121037152635
0.126447516431
0.125651802044
0.216655635817
0.00678845994279
0.037071638579
0.0376013463096
0.0361129413027
0.0365540933422
0.00664913167807
0.000745667478799
8.92587266924e-05
8.69213683716e-05
9.60205103119e-05
9.17509472688e-05
0.000766828638186
0.000821184978367
0.00010034071275
9.82919429509e-05
0.000106207363713
0.000103079596168
0.000865680225665
0.000921732448903
0.000113394456299
0.00011073533831
0.000120081842369
0.000117875413011
0.000949996731857
0.0010165246942
0.000127361316452
0.000124285825986
0.000135516337758
0.000131210115925
0.00103953912278
1.7596125908e-36
1.69553535985e-33
3.78820360062e-31
5.96909631146e-31
4.27356534501e-29
6.24316945821e-29
4.18245854213e-27
5.31933386884e-27
5.08191465292e-25
5.30375913715e-25
3.60554010595e-23
3.82082530234e-23
2.41423288372e-21
1.26084178215e-19
1.07189745115e-17
5.48401316203e-16
3.59886032648e-14
6.46611918931e-10
3.73796122405e-12
4.17829083809e-12
3.97564509086e-14
0.217551070452
0.218369623352
1.02992298552e-09
7.62038627774e-08
9.26845335012e-08
7.57051862632e-10
0.217906884035
7.42222810538e-06
5.94612623248e-06
9.90219827598e-06
8.0456205407e-06
0.218005764509
8.48191598258e-10
1.02655797947e-07
1.230673572e-07
0.217746492693
0.00816721311938
0.00771767578598
0.00990176524062
0.00955509580946
0.218301816123
0.00867340162609
0.00826460303499
0.217795365983
7.13970303221e-06
0.00121679112957
0.0012865425434
0.00109905851174
0.00117072211076
6.33681293285e-06
9.33037170678e-06
0.0014607675748
0.00153721709978
0.00133521059586
0.0014291810475
8.71414561557e-06
0.218254768994
0.00942764487648
0.00887045117612
0.21762140605
0.13140010692
0.130690544958
0.140214410696
0.139568286809
0.218358226903
0.135145362126
0.134450748677
0.217850819405
0.218132810556
0.136740340495
0.135956905583
0.132626395243
0.132049811388
0.217697804442
0.00803745211597
0.0415122754451
0.0419332481334
0.040523136918
0.0410474168909
0.00788374467442
0.00975237963358
0.0472333027724
0.0478116180918
0.0464288244492
0.0467935983111
0.00964183814063
0.218337686781
0.138984717097
0.138505365641
0.00851133620844
0.0432637816312
0.0438318710176
0.0423143468153
0.0427653404011
0.00837616561778
0.217822658776
0.133781186775
0.133197984267
0.138005053793
0.13746430237
0.21822432674
0.00927314642899
0.045659361073
0.0460845971862
0.0444600702128
0.0450953831109
0.00906437906571
0.00113046227187
0.000144868076406
0.000140888328533
0.000150555455796
0.000148062100848
0.00115272497723
0.00124250692121
0.000158470179828
0.000155405114135
0.000169625923651
0.000163983577519
0.00127108833001
0.00136096292995
0.000179594040573
0.000174325536834
0.000189082143401
0.000184503505386
0.00138327554844
0.00148222287563
0.000199038801146
0.000194247757827
0.000207775206612
0.000203425814517
0.00150954282387
6.38581105599e-36
1.54997212774e-35
1.81397611602e-36
1.77015866376e-36
1.8264301172e-36
1.88625344021e-36
1.83444045051e-36
1.93299097845e-36
1.88198324375e-33
2.06022731423e-33
8.42043516544e-31
7.37171831812e-29
6.03731794715e-27
5.80237301562e-25
4.04149477032e-23
2.56252601242e-21
1.33279614028e-19
1.11973400696e-17
5.83336667971e-16
4.77468512314e-14
1.15076333695e-09
5.7188658573e-12
8.06179884354e-12
5.42031948763e-14
0.218383127026
0.218791346345
1.83620583225e-09
1.35851958682e-07
1.59295649342e-07
1.40856406475e-09
0.218727817495
1.22972283862e-05
1.04953530851e-05
1.50951956054e-05
1.26578433266e-05
0.218742560944
1.56518249942e-09
1.75045368313e-07
2.04264272739e-07
0.21853333026
0.0106928474347
0.0100813425048
0.012957343648
0.0123903021312
0.21872860028
0.0113812453407
0.0108781183038
0.218617059244
1.1654992213e-05
0.00172966219
0.00184806481653
0.00157657377166
0.00167289245956
1.09897231528e-05
1.41768282405e-05
0.00205027667421
0.00217907952904
0.00187156682581
0.00200397342001
1.35373999406e-05
0.218728202142
0.0121646932515
0.0115498000828
0.218410181905
0.141645684236
0.14092883465
0.149904137464
0.149378611213
0.218775544136
0.145389069429
0.144834247899
0.218695152961
0.218743390552
0.146540192322
0.145955658546
0.143032700752
0.142347398607
0.218474757608
0.0104852312189
0.0497073692193
0.0503203196734
0.0484365101381
0.0491042803812
0.0102871390692
0.0127864201413
0.0562310742132
0.0567042236887
0.0552026140837
0.0557376696182
0.0126022735388
0.218749370686
0.148802221862
0.148236418557
0.0112098957652
0.0517897066157
0.0522783808206
0.0508431803545
0.0513573378799
0.0110571763096
0.218673706961
0.144281537125
0.143680181572
0.147677689976
0.147137553648
0.218736635067
0.0119424541278
0.0539887735602
0.0546186522108
0.0527810651563
0.0533763063713
0.0117391460188
0.00159875471084
0.000219820390672
0.000214240726603
0.000229532698038
0.000225473910993
0.00165390259106
0.00175263632817
0.000243949367185
0.00023868935888
0.00025628382392
0.000249529898625
0.00181075930674
0.00191091450538
0.000272630396685
0.000262746061573
0.000285239735843
0.000278548503473
0.00197752413398
0.00208381081125
0.000299018129281
0.00029073971506
0.000312155568827
0.000304779174412
0.00213657431793
5.38680422188e-35
7.40821311984e-35
1.98713314154e-36
1.98808775429e-36
3.02856195781e-36
3.26429313378e-36
1.99193702503e-36
2.3990924353e-36
2.43815978437e-36
2.39111457034e-35
4.70370174983e-35
1.92399942057e-36
2.67973944308e-36
2.95517908926e-36
1.98447702216e-36
9.60075961834e-33
1.26857927839e-32
2.09040965283e-33
1.61761484373e-35
1.61601676724e-35
6.73836876232e-35
1.98936440092e-36
2.37969233537e-36
2.38680965159e-36
2.3415971114e-36
2.39026225473e-36
1.9919204594e-36
2.57907590015e-36
2.5439196346e-36
3.19892979584e-36
2.35633469555e-36
2.36704368753e-36
1.99127235155e-36
2.41870729329e-36
2.40931186581e-36
2.43107627131e-36
2.42181215081e-36
2.39519691529e-36
2.3790374595e-36
1.9912202495e-36
2.33047583176e-36
2.34251483998e-36
2.30338178705e-36
2.31825288675e-36
1.99011476803e-36
3.09707702815e-36
2.52704173813e-36
2.49107385235e-36
1.96737103743e-36
2.26717298535e-36
2.32299607376e-36
2.36108937046e-36
2.3377887281e-36
2.32416528089e-36
2.3702468136e-36
2.35263129734e-36
2.37367670412e-36
2.16491356995e-36
2.23586629361e-36
1.95719421558e-36
6.19056500567e-35
1.60820102023e-35
1.59426972795e-35
1.86015978582e-36
2.32964043674e-36
2.57958426914e-36
2.46338009548e-36
2.43192612273e-36
2.86916089657e-36
1.978247931e-36
2.27071511375e-36
2.28717628392e-36
2.22672797465e-36
2.2451043443e-36
1.97398587484e-36
2.30112072153e-36
2.28361379734e-36
2.30211773259e-36
2.28469211524e-36
2.26250667091e-36
2.24060854406e-36
1.9520607119e-36
2.18159169535e-36
2.20744521907e-36
2.14159977495e-36
2.16338225262e-36
1.94368672885e-36
1.89114794138e-36
2.06380599521e-36
2.13681761723e-36
2.73083396833e-36
2.3689160779e-36
2.33623064693e-36
2.21768939665e-36
2.19615000079e-36
2.21099158623e-36
1.91137800084e-36
2.08759959404e-36
2.12094585465e-36
2.1857992059e-36
2.17235169604e-36
2.14589048353e-36
2.01136229012e-36
2.28971184511e-36
1.85181517206e-36
4.90913100774e-33
6.02546091447e-33
1.99403681062e-33
1.5796206392e-35
1.5684131747e-35
3.84382353296e-35
1.97261053961e-36
2.04283882756e-36
1.88357688322e-36
2.28262766905e-36
2.22366868511e-36
2.51097750121e-36
2.03666277294e-36
2.06659626824e-36
1.90144348173e-36
2.12355274387e-36
2.09562803693e-36
2.11426243833e-36
2.0788256769e-36
2.07297733198e-36
2.04806429745e-36
1.87441699119e-36
1.9879110592e-36
2.01948048812e-36
1.95544714314e-36