/*--------------------------------*- C++ -*----------------------------------*\
  =========                 |
  \\      /  F ield         | OpenFOAM: The Open Source CFD Toolbox
   \\    /   O peration     | Website:  https://openfoam.org
    \\  /    A nd           | Version:  8
     \\/     M anipulation  |
\*---------------------------------------------------------------------------*/
FoamFile
{
    version     2.0;
    format      ascii;
    class       volScalarField;
    location    "1e-05";
    object      p;
}
// * * * * * * * * * * * * * * * * * * * * * * * * * * * * * * * * * * * * * //

dimensions      [1 -1 -2 0 0 0 0];

internalField   nonuniform List<scalar> 
49758
(
101325.000093
101325.00032
101325.001299
101325.005323
101325.021907
101325.090285
101325.372214
101326.537637
101331.356102
101351.204496
101432.437999
101373.576919
101423.069018
101544.735073
108023.066276
102037.352888
158419.489005
115932.528844
111506.884336
101731.102194
111679.118856
102598.343692
104076.01522
102284.508138
103197.564285
122264.290231
116654.439879
101456.409839
104355.827977
116313.405122
122826.087072
104214.851942
115850.062391
106701.812834
135062.193782
122341.80413
102256.864721
101564.477714
103263.425545
117258.338296
110464.473646
113259.447784
111959.172262
106051.434926
103321.044207
105287.54104
110449.611774
121334.400271
127826.251391
111710.592936
120088.282343
113725.408185
101553.360952
118193.695731
103755.904679
106412.142184
104006.463422
102751.60132
110627.389249
106122.384979
110387.485973
119603.4984
103717.51642
108318.712084
106281.543354
110811.549649
106728.581294
112228.034671
113721.22592
111280.902711
110117.270496
113584.443391
110208.082928
158327.372773
129577.265211
115957.134007
104339.111978
104802.134901
115844.229049
107732.34468
109713.32579
122350.757015
115402.541218
117809.176579
117463.745446
115567.199186
113143.78956
115289.917054
122388.050432
106531.952295
106875.832878
115530.523104
114734.467995
113975.164799
123331.655336
128331.138564
148073.646257
117832.672118
123233.693256
122669.596955
105198.870137
117707.062759
107946.295664
102331.375625
102500.122719
101783.469499
103333.259434
103020.529832
102850.484908
117234.612996
105317.487595
105560.875151
113233.198512
112919.50835
112197.353166
114208.372422
110322.271852
107265.257756
119638.754833
115023.284258
118371.685288
125369.334686
113302.749234
117701.414409
119365.447158
119114.770601
116440.957763
117160.237875
118650.699323
117549.816398
103712.071069
102123.207661
101384.478948
110827.232222
104812.871311
109989.16031
106019.848284
106222.726989
120720.05683
104244.963741
103731.13768
103619.165166
105589.498826
104508.435449
105482.57759
113892.976909
114574.586816
114004.990094
113253.919684
114367.065764
114197.716873
113149.477215
111847.89453
113093.46534
101325.022785
101325.058067
101325.189217
101325.612102
101326.989242
101331.451022
101345.856795
101391.983316
101538.870705
102006.261726
103389.374427
104947.980867
108902.82721
107268.402604
105502.19449
105496.085771
115434.954362
109495.889642
102156.206445
105016.09059
102594.432901
105834.426728
111846.811473
101387.876529
103290.603933
100752.846895
101071.652854
111516.864929
103582.095493
101340.294552
101139.499328
113624.747453
101087.030316
101163.068877
100717.13394
100811.497507
110220.628533
100915.20959
101027.641191
113047.48751
101709.078119
101175.472416
101198.268117
101951.17959
101588.881515
102116.096277
100765.208771
100843.30842
100850.91605
101088.26459
100962.619988
100886.847686
110656.116538
100942.751466
100960.702383
114914.421885
104028.577528
104044.511821
102634.143067
102769.241975
109758.383925
103531.242386
103599.196576
112236.798105
111575.00876
103537.939132
103436.048462
103915.320979
103795.148531
114253.896703
101042.257621
101360.686462
101558.538042
101375.711864
101313.745499
101045.041454
100696.701741
101603.855159
101660.702488
101682.139091
101621.912235
100726.373167
109984.382757
102949.436629
103103.202371
100911.809703
101523.070724
101538.065642
101584.948164
101545.831052
100908.771682
112580.169923
103732.655104
103849.429604
103233.735442
103406.441249
111215.302454
100982.857711
101765.12724
101749.754181
101624.155745
101743.80793
101001.258357
101325.285967
101325.614723
101326.851813
101330.405956
101340.719995
101370.004831
101451.212187
101670.905699
102236.055961
103275.093777
103984.880087
104681.008449
102266.020828
101576.072651
100966.219432
103185.381091
101682.876038
103478.241498
101100.750725
101137.152029
101523.325884
109376.510827
107781.47786
100934.342885
107736.352578
106194.294162
101169.487305
101031.130318
100899.167004
101015.137465
100989.914162
101103.076776
101030.535141
108596.092774
100723.209707
100747.698215
100905.970915
100718.406519
108488.830531
100885.383476
100814.074896
100883.450292
107348.362391
101264.18475
101021.689449
101288.563679
101280.598258
107328.262556
101136.969858
101179.00654
101176.723921
108749.183353
100716.112935
100771.259766
101109.908869
100997.93735
108097.08448
107578.383422
101165.373025
101138.365739
101543.517693
101330.860504
107027.030579
100783.506341
100726.718706
108594.294662
100753.116674
100919.633827
100912.046129
100878.638825
100886.037892
100738.591848
100817.038593
101050.707801
101144.681638
100903.678042
100936.39738
100733.276729
108212.347594
100929.380459
100822.230468
101197.885866
101182.758641
107485.16111
101189.701357
101242.866487
101253.512843
101202.936098
101238.738491
101135.83262
101277.191991
101272.324096
101332.109814
101229.827089
101292.858569
101314.57108
107308.296945
101290.612276
101205.040259
109199.36183
102523.557487
102611.076577
102223.824141
102318.186949
107848.056086
107618.860046
102199.885443
102153.296521
102510.605302
102400.565023
106488.322695
102154.414469
102078.250971
108692.192201
108465.074347
102259.463469
102213.819012
101949.312983
101910.419263
107286.079366
107364.814445
101736.138597
101879.023757
102192.894462
102377.872812
108902.92013
100778.74671
101871.91738
101835.005188
101762.299567
101841.814985
100776.330921
101092.865888
102738.339322
102761.879659
102563.329231
102678.255788
101062.196232
108003.479772
102272.868685
102280.967108
102073.518278
102116.905962
107571.986881
101137.603329
102891.227612
102978.08522
102819.204853
102875.47601
101138.469478
101466.977674
103582.947988
103627.007578
103372.946429
103502.768238
101396.646911
106800.328891
102136.857094
101917.87004
100773.051842
102008.442689
102083.220807
101840.075214
101928.559741
100749.779946
108566.91739
101988.0315
102024.873612
102381.57716
102377.166618
108339.581224
100899.803759
102439.907033
102505.348053
102185.116911
102296.523313
100857.686491
101201.323027
103144.863841
103213.779575
103065.381129
103086.060339
101178.181343
107410.601088
102023.2762
102105.941733
101879.378166
101749.879391
107370.134944
101246.277329
103360.333133
103371.156578
103232.961357
103260.079923
101196.516285
101269.179784
101232.399068
101284.174421
101257.705599
101205.272696
101186.288622
101170.78803
101139.687539
101312.602562
101326.94744
101328.525104
101334.886259
101351.185559
101393.4628
101499.280826
101752.901962
102309.254608
102318.532056
102761.576682
102970.031221
102931.871799
103266.467659
102884.371251
103154.598079
101975.420758
101292.535207
101224.387512
101187.224883
101309.411501
101293.786969
106070.920861
103998.524009
101562.706793
101207.466965
101320.557452
101283.530498
104901.507908
101681.148308
101323.286335
101649.231561
101731.49009
104735.336209
101419.402922
101475.868618
101548.826034
105399.186867
101993.059956
101674.420378
101995.068188
102100.894591
104380.074918
102067.787655
102043.767275
105301.548599
101539.004284
101695.184578
101663.625113
101410.757298
101675.260807
101398.770561
101723.486718
101575.978233
101490.839118
101616.710331
101566.043846
101763.449445
104503.397998
102084.993156
102064.372625
105854.921966
102575.674292
102549.704591
103005.3794
103008.621415
104110.862133
102870.968854
102833.569353
105113.201693
104631.307886
102831.684827
102827.362502
102655.177759
102646.968742
105597.629877
101906.042462
103796.135913
103723.756622
103698.080823
103738.251163
101795.863539
102044.650886
102890.501696
102820.278571
103037.935295
102965.587708
102075.784869
104203.886601
102965.153743
102943.286733
102060.157435
103525.218805
103426.827996
103689.171723
103598.057396
102065.197522
105222.694411
102753.311264
102697.799876
102922.346306
102863.875062
104556.215718
102053.468573
103164.232092
103077.864045
103347.677178
103232.981717
102040.391118
101655.496194
101664.504054
101548.285921
101563.348663
101597.97512
101630.78922
101525.957204
101554.289324
101529.426024
101563.10432
101664.522178
101689.501541
101730.427678
101714.563077
101677.395438
101702.104303
101684.358433
101625.418881
101549.316845
101460.782372
101598.604925
101501.238438
101372.230282
101312.715159
101334.266275
101339.157517
101368.975941
101362.436533
101435.085253
101415.13226
101566.03228
101538.063489
101839.562987
101806.98939
102277.509614
102626.816493
102740.158908
102703.432779
102196.687062
101512.097823
101346.859915
101666.156513
101461.422175
101538.664416
101432.825224
103874.529173
102997.307301
101643.620227
101550.065843
101505.800282
101680.882866
103342.777121
101579.61129
101611.498345
101542.807772
101585.919171
103255.238446
101645.655741
101446.070212
101426.249982
103620.918415
102098.484716
102014.505828
102371.446092
102368.903496
103075.387431
102254.226924
102135.799814
103552.404738
101560.129832
101467.082346
101509.787382
101469.872666
101451.39914
101550.650532
101575.56621
101521.337282
101463.2416
101513.103902
101522.266629
101583.23092
103087.513095
102335.73272
102276.961312
103806.283736
103178.994628
103058.425796
103767.821648
103716.191053
103059.622137
103442.549431
103388.650172
103427.653698
103192.81021
103536.846506
103489.766128
103222.94841
103192.427537
103691.28664
102084.16184
102708.045185
102631.547208
102792.814182
102775.538424
102053.059747
102385.609665
101932.516957
101846.066224
102065.412491
102013.902643
102386.57823
103079.800177
103666.505921
103614.788477
102231.175089
102458.95939
102391.238423
102555.187922
102502.403902
102189.973484
103484.910092
103302.441248
103247.742731
103582.279724
103569.303014
103137.680891
102302.388051
102196.348879
102124.274098
102318.438009
102264.434577
102295.427954
101460.550042
101490.657987
101503.167096
101461.2845
101470.718672
101454.008976
101487.217998
101490.564964
101475.916268
101522.58676
101513.251337
101503.282843
101512.366775
101522.958743
101527.45188
101521.781655
101521.209845
101512.461791
101511.351278
101502.065564
101514.427623
101454.83654
101480.493537
101493.250545
101359.835056
101434.024643
101438.491416
101591.777971
101854.381269
102236.892692
102517.838738
102617.983939
102598.063911
102264.096664
101741.735929
101483.328053
101500.474281
101631.382068
101560.694425
101536.457548
101494.652219
102878.085612
102589.342345
101560.421826
101390.73829
101343.548024
101611.176565
102695.487796
101456.478532
101513.688228
101485.310065
101457.014738
102565.623966
101582.943551
101321.741244
101320.005433
102766.011543
102401.738011
102346.322662
102761.039587
102670.061781
102568.570648
102595.378285
102439.314095
102793.728599
101463.059543
101405.099463
101458.558782
101417.813011
101377.992946
101478.321828
101477.623277
101418.171105
101441.083027
101445.140197
101401.878897
101468.30898
102486.348088
102616.278291
102604.985511
102807.27282
103912.433609
103857.236086
104779.219765
104757.650501
102681.744307
104351.956907
104252.216575
102802.011938
102488.217132
104352.923595
104343.748788
103982.738628
103926.551443
102753.175165
102372.315962
101601.58524
101552.862872
101765.894801
101678.039404
102350.795948
102759.09077
101000.968833
100913.609343
101032.441295
101056.728134
102738.57866
102692.244216
104698.825352
104508.870604
102575.68197
101476.218861
101396.689764
101498.722551
101470.058297
102524.267822
102808.766601
104123.761886
104053.672499
104418.885978
104389.929552
102461.82312
102591.516
101131.343711
101062.95131
101289.870758
101211.588583
102604.206436
101389.053785
101397.915069
101418.30755
101369.442346
101377.590086
101378.19644
101443.952391
101392.596372
101376.33435
101403.676542
101402.072857
101456.995319
101412.931445
101372.301557
101395.037104
101368.819176
101367.943255
101394.435483
101439.106344
101382.194769
101373.046775
101386.081999
101387.191855
101442.791313
101604.892275
101578.874581
101869.464409
102205.292356
102447.902547
102524.659775
102518.726374
102285.576515
101847.272256
101575.366061
101465.487411
101478.119145
101550.635142
101499.518141
101483.152159
101461.142629
102464.828898
101987.028263
101544.929589
101323.60345
101316.422571
101546.719512
102274.122251
101513.624619
101492.644617
101485.217532
101482.568438
102162.396666
101545.080089
101301.97879
101312.420514
102294.825518
102775.185277
102766.482444
102986.318348
103026.854364
102023.683743
103071.568398
102807.986591
102330.10707
101521.54934
101397.452545
101528.251116
101435.506145
101387.158187
101505.047598
101479.753647
101408.027942
101408.270188
101527.773381
101413.923502
101468.505068
102057.179356
103010.265878
103087.49295
102361.202373
104769.303285
104779.745279
105510.874753
105385.784243
102049.8307
105217.535579
105142.296811
102377.790766
102127.816941
105250.324662
105221.238858
104815.087605
104765.004138
102290.716139
102772.166913
100713.276071
100664.024212
100827.65579
100775.430433
102779.083693
102967.314549
100308.315718
100369.604347
100359.5451
100326.108255
103052.382577
102018.77312
105289.234364
105236.89482
102999.831182
100682.050767
100725.602766
100625.437638
100619.820915
102876.925016
102422.476209
104996.089273
104865.46416
105247.122819
105235.022375
102083.507519
103023.038648
100498.763434
100426.093821
100666.969422
100604.681643
103080.028661
101420.622502
101377.616853
101383.646563
101365.747348
101369.224051
101394.17766
101449.181067
101400.17887
101367.763201
101429.754476
101429.813507
101511.697887
101512.522285
101405.355758
101420.764766
101338.953485
101353.909249
101448.549803
101413.636461
101335.774651
101335.472111
101321.085121
101328.19554
101400.742983
101935.14216
101831.155686
102167.69845
102362.369032
102447.174758
102452.225812
102287.879677
101920.793687
101634.678179
101523.425831
101457.2301
101444.942266
101534.058702
101422.537855
101470.9277
101436.664021
101416.65395
101865.356408
101306.655327
101433.114731
101273.726881
101157.470753
101422.93923
101284.018015
101244.676369
101509.32667
101231.026594
101249.992461
101419.618766
101512.969311
101399.286006
101460.987996
101408.309144
101407.687022
101556.021843
101463.826545
101209.707073
101210.099955
101165.27147
101465.548695
101426.695417
101461.747678
101469.168064
101092.186008
101420.124488
101282.720585
101302.617354
101649.850895
102838.641971
102946.697172
102580.454645
102714.214105
101473.559023
101522.07007
102561.571714
102540.235795
102164.140671
102243.77332
101413.902833
102779.278597
102816.094644
101597.038021
101402.984878
101372.585052
101401.189069
101400.292051
101598.106754
101625.58646
101575.033174
102751.952413
102811.721594
102368.232897
102539.540402
101456.662655
101463.513736
101803.896936
101771.479604
101642.960896
101791.336288
101457.820937
101478.866971
101905.953887
101946.902572
101783.223341
101849.469682
101482.482491
101311.493322
102218.303139
102318.626908
101768.157968
105409.864608
105489.385961
105056.358823
105121.854138
101351.970897
101321.88133
104895.437761
104966.801506
104695.073217
104757.945769
101274.635972
105170.20993
105181.733559
101528.205379
101625.613563
105280.877282
105229.534497
104856.569824
104927.186369
101249.986234
101066.177717
104692.243305
104772.583651
105283.316131
105346.856901
101705.616081
100375.259328
100372.791581
102917.70898
102622.59079
100840.132627
100845.851845
100821.142582
100827.903861
102676.278496
101401.847395
105168.426803
105225.470341
105110.315762
104994.08011
101480.474665
102504.863969
100994.730882
101185.008456
100856.94945
100890.068458
102512.291821
102199.686193
101623.330283
101635.614818
101586.814919
101624.306581
102232.646022
101338.28937
104830.180683
104857.752944
101560.827113
105192.823926
105226.344762
105276.453243
105283.366683
101639.331613
102426.175578
101240.435883
101245.744272
101228.118496
101235.346474
102488.427528
101359.935446
104994.47978
105059.260524
104757.622742
104643.056468
101128.122803
102242.840534
101344.570801
101442.172373
101259.884659
101297.89309
102279.62558
102878.955165
100383.047963
100382.754713
101390.425898
101391.140769
101478.934612
100381.908529
100403.144992
102799.78978
102785.155832
100443.526947
100490.661212
101543.919549
101587.774953
101403.970246
100591.680978
100714.23933
102842.244029
102800.001811
100764.966341
100806.287966
101386.75898
101259.559748
101293.985937
101201.042034
101219.471342
101372.155435
101417.281329
101217.10792
101204.564443
101245.905599
101231.580728
101444.231521
101589.823163
101290.236568
101279.685337
101277.419957
101290.565319
101594.935011
101606.087153
101264.951855
101269.076635
101262.776855
101261.425695
101609.365387
101675.919586
101278.065526
101264.306514
101345.603347
101316.267073
101730.019603
101799.723268
101338.062957
101347.788428
101318.121393
101323.725307
101773.243012
101796.505957
101319.949537
101317.86208
101349.626706
101326.729797
101815.138655
101930.570493
101371.58002
101370.786493
101353.631259
101366.919206
101944.264595
102704.11745
102141.221372
102359.16263
102406.266177
102401.799548
102283.647754
101976.731946
101695.050606
101582.270406
101535.558746
101485.161831
101488.462518
101447.49572
101431.590387
101410.208499
101388.300755
101369.864804
101421.669271
101410.0354
101406.848548
101359.736214
101428.071435
101455.052259
101385.162805
101040.091267
101365.298908
101402.996818
101332.256359
101356.500079
101420.916514
101199.183082
101485.730698
101443.236408
101484.193038
101474.958233
101034.74896
101404.557756
101380.910394
101419.575494
101073.923044
101992.757114
102110.132186
101700.453592
101758.014737
100916.619529
101865.370416
101955.693205
101246.752723
101477.710387
101946.908706
102040.907837
101920.887475
101931.174667
101453.912778
101467.354244
102153.711385
102130.966458
102053.054779
102127.151376
101466.793047
100823.489247
101751.982135
101821.472215
101007.707992
104555.297195
104625.112643
104443.984167
104437.913515
101370.283104
104497.466073
104557.470257
101304.761982
100909.043596
104350.494053
104434.600194
104422.552665
104463.85214
101007.579329
102020.662581
101721.208486
101784.522543
101656.462408
101686.564881
102063.861138
101780.210105
102564.550739
102616.017053
102206.851449
102373.327844
101794.138428
101175.342658
104246.593419
104151.916566
101912.031095
102034.804706
102025.052527
101886.317234
102020.649778
101951.89399
101346.757717
104606.216323
104501.487127
104199.772153
104267.661218
100835.271545
101754.75211
102058.504018
102121.178145
102027.491983
102030.869391
101777.476123
101912.522263
101308.059302
101318.313604
101309.258036
101308.265075
101919.777764
101989.038341
101361.302314
101323.328642
101382.02251
101378.272772
102016.927612
102069.86721
101382.500684
101380.436916
101378.78474
101377.392167
102097.039379
102166.164544
101370.134236
101378.857597
101364.160896
101365.984561
102152.08179
103734.441391
102300.752069
102419.164065
102390.480355
102392.434494
102309.156095
102288.041752
102084.234343
102023.2431
101791.99567
101737.19191
101595.433388
101497.837716
101441.178302
101422.348543
101412.920021
101405.095478
101384.457789
101483.349828
101510.449133
101415.53042
101205.734461
100628.332186
101355.180333
101452.055873
101495.57538
101374.657198
101357.395888
101534.606234
101502.71938
101490.968452
101518.072358
101476.775385
101356.26009
101512.186152
101553.768381
100696.369854
101315.922191
101584.253381
101206.860309
101132.748403
100861.955048
101614.958243
101314.68537
100647.231732
101550.217392
102251.926814
102408.314833
102115.426791
102160.383571
101538.098324
101507.077462
102347.306363
102486.47098
102353.383321
102325.282979
101517.340028
101141.431503
101188.495422
101526.838075
100996.731654
104178.608381
104319.348316
103624.413852
103730.228244
100620.732067
104109.83677
103851.020394
101040.277527
101456.813778
104199.502651
104225.437973
103926.775917
104035.097744
100782.217524
101374.763508
102455.482785
102418.447618
102583.907697
102521.696885
101473.902289
101159.431995
102982.011434
103062.68036
102976.457026
102961.901652
101136.800571
100698.44957
103821.700696
103884.017533
101576.113565
102760.840323
103083.693244
102420.680673
102514.282606
101411.171964
100741.392048
103776.357633
103835.960785
103966.19258
104073.276852
101343.277724
101275.477678
103099.31855
103024.539991
103209.57331
103189.333159
101397.524226
102110.367473
101372.309442
101368.77269
101414.375458
101381.399583
102118.519601
102365.681757
101481.908687
101469.965855
101466.189656
101481.085775
102407.929558
102315.513605
101429.738919
101445.202822
101433.939783
101430.352544
102315.18628
102410.201108
101461.28727
101446.992314
101467.915407
101471.518138
102463.079037
102527.178572
102389.948618
106495.100846
105006.216398
103083.157903
102902.147857
109953.166762
130131.41453
102299.853414
102437.361822
102332.743237
102126.742535
101858.205891
101660.191092
101531.739991
101470.147977
101429.637615
101421.699542
101433.366504
101430.582052
101351.99321
101536.363231
101572.411559
101452.009069
100768.632758
101452.742052
101361.708642
101584.2321
101612.950311
101347.712164
100843.913215
101583.96852
101495.831695
101489.160202
101513.231661
100662.87258
101357.260999
101609.46883
101626.085849
101522.952271
101094.880294
101223.905596
100814.268378
100695.785924
101037.111531
100885.70222
101014.880677
101473.789188
101600.562014
102462.76447
102594.374549
102486.700427
102431.319942
101548.088401
101507.714434
102622.106038
102741.90358
102595.206371
102582.766101
101503.624416
100684.389462
100686.653464
100829.758919
101122.49434
103634.248795
103540.294641
103610.11648
103632.146304
101407.790035
103613.389444
103709.192379
101105.87355
100576.648772
103346.217613
103495.268956
103939.670158
103863.344402
101401.997062
101179.720604
103568.943717
103645.81125
103177.209101
103352.795168
101225.683625
100910.2387
104262.406019
104227.757622
103634.77177
104050.855944
100863.706872
101294.153359
103564.805917
103248.890102
100934.562225
103524.114795
103524.580852
103613.996818
103560.50359
100978.979519
101336.246554
103806.574081
103893.416091
103110.738228
103181.855515
100566.246039
100723.86862
103553.977973
103545.62977
103541.241844
103560.143478
100780.513445
102453.696927
101425.756946
101442.449257
101449.516011
101423.837379
102417.785824
102523.596422
101574.931611
101543.038491
101596.521861
101596.332646
102566.698035
102562.625792
101484.450022
101562.151219
101478.476488
101474.811415
102568.342374
102715.674541
101595.068995
101523.817115
101605.875332
101619.003788
102744.794415
102497.147628
102489.497337
139656.166719
135179.129674
102442.044973
102439.62295
137817.497072
102437.557593
102455.165699
102308.95633
102414.352709
129589.094809
102555.545848
102455.947874
134524.508375
102370.208571
102426.316817
102484.077296
102462.008274
102481.874205
102507.181392
138928.328484
103693.453316
103749.555831
102439.659801
102457.208562
137274.439641
102453.217318
102441.224687
102434.300391
103697.001637
103667.654995
138352.570984
102469.035868
102446.546584
102448.303724
102431.720132
102430.144179
102472.031759
136695.041965
103664.543216
103700.005999
103477.59631
103579.641867
136018.19829
102424.967012
102431.503178
102436.481294
132920.007147
102457.377232
102417.806349
102448.400601
102466.694694
102430.350222
102501.363131
102489.683321
102458.519441
102424.256857
102441.712944
132316.256508
102514.001224
102517.046395
102540.212102
124565.734882
102499.75649
102597.842479
102432.480323
102426.739121
102484.284066
133978.668191
103431.827038
103433.743456
103454.785001
103475.082263
133459.168564
102399.082893
102408.3948
102414.732236
102445.828624
102475.488352
102467.641369
131533.292991
103289.465689
103404.84743
103183.857558
103208.352781
130736.935829
127682.993821
102605.022467
102454.093195
102509.474633
102449.64506
102491.051524
102437.857375
102394.417643
102442.982233
129045.312105
103302.956446
103265.04455
102435.060997
102341.199472
102311.535755
102523.696357
102387.898621
123764.852646
102337.917703
102366.407026
102339.645168
102539.613205
102417.61363
102341.85555
102912.268403
102627.41011
126787.897507
102548.65978
102639.070669
102623.095334
103230.030749
103280.481932
128431.005853
102410.249451
102481.309099
102536.985881
102562.224338
102480.082191
102462.630267
126008.764425
103238.315228
103188.827213
103684.351021
103412.607619
125289.281885
102623.458256
102699.661432
102714.226138
120027.182634
102699.274152
102937.498819
102445.677023
102488.936767
102685.442056
104571.896861
103519.098025
117759.165197
102309.965165
102354.639359
102383.661881
102549.053407
102431.293472
102361.907961
122720.347921
104081.162502
103855.403862
102797.741006
102680.610776
102873.569636
105120.185185
104537.918826
121533.110217
103174.414564
103309.228978
102897.57039
102714.804772
103418.373026
103376.097428
114465.968343
106870.239333
105864.78653
140418.153948
102459.623447
102213.053692
101919.412825
101696.697637
101568.37799
101485.50906
101455.470215
101436.855414
101437.319689
101467.853753
101486.073442
101375.117297
101625.228594
101641.42909
101508.04445
101461.662066
100300.995778
101299.224272
101596.200789
101585.493472
101375.960136
100889.41532
101350.431317
101427.290262
101269.507303
101367.713423
101282.295917
101343.143532
101526.575394
101497.448398
100715.788799
100468.156251
100697.436523
100496.629335
100480.712823
100997.525817
100399.574102
100425.676947
100526.582558
101333.746553
102664.093862
102440.095783
102739.166156
102669.3826
101369.669295
101289.988215
102566.672973
102376.992877
102419.014475
102577.44256
101338.416239
101357.463441
100506.839698
100451.362522
101392.098594
103494.368579
103553.39978
102634.483412
102807.3065
100377.405874
102922.260774
102842.982227
100560.47655
101454.854749
103208.025166
103154.326717
103340.54189
103450.690423
101079.981178
100528.02992
103954.811865
104031.581334
104110.319211
103981.922662
100616.649815
104071.452919
104086.353219
100460.044861
100579.014807
103006.738574
103131.30494
100384.246086
104006.201991
104109.351804
104016.226578
103997.465424
100398.435413
100476.81368
102925.568793
103115.876915
103166.865027
103201.799323
101495.340155
100511.878412
104205.178976
104094.54702
104347.485826
104325.744404
100484.641734
100479.990443
104107.742441
104119.833751
102465.731822
102422.676303
149471.005258
102735.455124
101551.630974
101590.801855
101426.948865
101460.444639
102675.794404
145296.108111
102452.800941
102438.999127
147583.200796
102456.464987
102456.337612
102445.035328
102451.407626
144717.484681
102402.504494
102352.230712
102413.281376
102641.182322
101376.264883
101395.300298
102436.038641
102442.164025
102435.012979
148911.225822
104356.802392
104384.112537
102471.11092
102448.479061
146938.976534
102435.000781
102442.561728
102445.428264
104218.161741
104298.73272
148308.733342
102485.947283
102487.282223
102464.344443
101343.979763
101346.132108
102527.764803
104146.545421
104153.505544
145849.521532
102448.472005
102446.223368
102444.735181
102460.334094
102478.202268
102464.046494
142679.934254
102445.134232
102469.246234
102445.571153
102472.554134
102502.12247
102448.060165
102438.11529
102442.491568
146388.71571
104143.373644
104172.239097
102467.700905
102433.200762
142137.208232
102450.418855
102445.883708
102445.934311
102452.152754
102453.872856
102452.759302
144047.295537
104029.035354
104109.65882
103918.098149
103954.821246
143288.046175
102496.040776
102481.516591
102464.180117
103849.931199
103903.363773
141030.548791
102443.181248
101480.495218
101392.336928
102446.830892
102451.470105
102455.872701
102453.043049
102461.050519
102442.665738
102443.234846
102497.375011
102460.706243
141593.679895
103925.803237
103905.256264
102469.887229
102502.453736
102488.749546
101550.594924
101543.71307
102530.08685
102526.883799
101483.111456
101539.215269
101414.569052
101438.370339
102475.626042
150016.422358
102355.845143
102033.893721
101791.713703
101631.637585
101544.651922
101482.513703
101461.722367
101455.610725
101464.019544
101490.745644
101503.616543
101260.200287
101599.248696
101573.326763
101488.113536
100415.976395
101309.749329
101237.607085
100454.553026
101338.350213
101291.610643
101439.538095
101280.813711
100298.154127
101236.517688
101532.729185
101550.243507
101385.024387
100460.158893
100516.042023
100513.662851
100684.124796
101307.918352
100524.389694
100437.716953
101353.083299
101399.931123
101933.601754
102251.183783
100756.458653
100799.320839
100701.290945
100771.02595
102742.904522
102612.56543
103238.815801
103183.862773
101451.466419
102879.752429
102992.580163
100808.663148
100268.930277
102628.869455
102752.358072
103051.323538
102896.833834
101229.509782
100450.615444
104246.204355
104143.159737
101496.422642
103024.040076
102854.192665
101190.039772
103119.441631
103143.189096
102659.413203
102558.531929
100373.337609
102482.198017
102007.212457
101303.300408
100837.678256
104148.494048
104276.273723
103928.733995
103988.05306
100842.541463
104288.507592
104277.355981
100547.387252
101509.294506
101505.022651
101228.455074
102309.986798
102200.989969
101352.480051
100488.367261
104275.366696
104239.966847
104204.026994
104271.55272
100512.765716
101368.84923
102245.86188
102484.633226
104162.350652
104069.7274
100429.250098
100459.513843
103992.770096
103932.01257
102402.788878
102310.58052