/*--------------------------------*- C++ -*----------------------------------*\
  =========                 |
  \\      /  F ield         | OpenFOAM: The Open Source CFD Toolbox
   \\    /   O peration     | Website:  https://openfoam.org
    \\  /    A nd           | Version:  8
     \\/     M anipulation  |
\*---------------------------------------------------------------------------*/
FoamFile
{
    version     2.0;
    format      ascii;
    class       volScalarField;
    location    "1e-05";
    object      rho;
}
// * * * * * * * * * * * * * * * * * * * * * * * * * * * * * * * * * * * * * //

dimensions      [1 -3 0 0 0 0 0];

internalField   nonuniform List<scalar> 
49758
(
0.0701947322817
0.0701947323933
0.0701947328763
0.0701947348612
0.070194743047
0.0701947768078
0.0701949160412
0.070195491693
0.0701978718853
0.070207674735
0.0702477584391
0.0702187146756
0.070243094303
0.0703030939101
0.0734579926906
0.0705457589736
0.102855141392
0.112575088385
0.0751345084212
0.0703945711207
0.0751980738428
0.0708206240326
0.0715453616994
0.0706672622806
0.0711146623868
0.1061889557
0.0775587707757
0.0702594946291
0.0715900879304
0.0773974977749
0.108016813242
0.0716124405147
0.0771843274426
0.072732878882
0.103807938151
0.0802184890356
0.0706569288593
0.0706100183121
0.0713343527941
0.110444162601
0.0746369430413
0.0759716074559
0.0753465719114
0.0725037410233
0.0711746103374
0.0721296848616
0.0745956802988
0.079754406144
0.103062251251
0.0752103052267
0.0791683959269
0.076143409277
0.0703074997314
0.0782743060855
0.0713831482441
0.0725831703657
0.0714701121989
0.0709117807702
0.0746413018385
0.0724721154732
0.0745340881083
0.110095555352
0.0715216268593
0.0736080309931
0.0726157325623
0.0747989704937
0.0728352695779
0.0754436295841
0.0761883338216
0.0750215287928
0.0744461965365
0.0761227667733
0.0744668613178
0.108216309118
0.0835774399459
0.0769931573139
0.0746924710667
0.0746418854501
0.111781141691
0.0739952200326
0.074836728307
0.104533087926
0.0769607325172
0.0781058981445
0.077942310688
0.0770427118231
0.0758764111327
0.0769111092412
0.10906558851
0.0740392993579
0.0738801037422
0.0770324165362
0.0766602365343
0.076299633014
0.0808573009508
0.0830886173351
0.10647419793
0.0780934645843
0.0806502271006
0.0804063596421
0.0720718170088
0.078011331734
0.0734146794358
0.0709459817526
0.0713398320189
0.0710513646939
0.0716321996413
0.0715372358505
0.0711775850004
0.11119014727
0.0746124030148
0.0744659545533
0.0759585291101
0.0758119103275
0.0754679786502
0.0763747708787
0.0746959257519
0.0732707270358
0.079022788746
0.0768869824014
0.0783568363468
0.103558675858
0.0763576979048
0.0783127953193
0.0788260884597
0.0787177121709
0.0774582544471
0.0777981532945
0.0785012915569
0.0779679534967
0.0713678446732
0.0705875588855
0.0702240335782
0.0747891869003
0.0719023388738
0.0744043631354
0.0743814990448
0.0741743334713
0.109620001551
0.0716941589706
0.071709825533
0.0717166033512
0.0724977550574
0.0720320475228
0.0722632674507
0.0762595155654
0.0765837569118
0.0763035785415
0.0759663799452
0.0764927955718
0.0764117119042
0.0759091730134
0.0752805726393
0.0758889524729
0.0701947434953
0.0701947609275
0.0701948257335
0.0701950347008
0.0701957152156
0.070197919978
0.070205037965
0.0702278238432
0.0703003364059
0.0705306981698
0.0712100823943
0.0719702840595
0.0738651347868
0.0730852713779
0.0722146322034
0.0722332112528
0.11349203869
0.1239009672
0.0705256134805
0.0719267269644
0.0707330845391
0.0723486239206
0.118467388166
0.0702504660477
0.0710916648647
0.0700761567194
0.0701305900933
0.11917536266
0.0712396302642
0.0701310634157
0.0700557870133
0.115519250661
0.070505671771
0.0704389804627
0.0705970854197
0.0705907607939
0.12192841964
0.0705235294372
0.0704997540712
0.116241675823
0.0703734917143
0.0702326462356
0.0702853869906
0.0705305291988
0.0704050441201
0.0705345432642
0.0700457828998
0.0702044857719
0.0702427455278
0.0702610026669
0.0702318985821
0.070072671971
0.121307639223
0.0706300744716
0.07057436057
0.114293383294
0.0750067276845
0.0747975155327
0.0780067040775
0.0778017270727
0.123242149085
0.0763293813509
0.0761727192395
0.117859155866
0.120230577702
0.0769348436001
0.0765576382148
0.0755758958685
0.075240688086
0.114889330056
0.0704509073996
0.0710057289418
0.0711680525882
0.070909928489
0.0709330212778
0.0704306334226
0.0705712054281
0.0715652603879
0.071612847598
0.0715606775901
0.0715561058132
0.0705667243189
0.12262483092
0.0776366056024
0.0774232876502
0.0704971220712
0.0712797832273
0.0713273855072
0.0712254252009
0.0712545989739
0.0704725158674
0.117085522077
0.0759997145622
0.0757914310923
0.0772552496955
0.0771186057886
0.120844143707
0.0706259356052
0.0715369544328
0.0715633911305
0.0714084447023
0.0715005704516
0.0706141937471
0.0701948735626
0.0701950360136
0.0701956473577
0.0701974037291
0.0702025005106
0.0702169705138
0.0702570868566
0.0703655663966
0.0706444974288
0.0711544125429
0.0714958769771
0.0718312393227
0.0706327813589
0.0702413843276
0.0699817864286
0.0710651391283
0.0703205505884
0.071234920309
0.07004230276
0.0700652463189
0.0702630717252
0.124801615307
0.135933367863
0.0699542555817
0.136625245639
0.145152508512
0.0701144834296
0.0700291987783
0.0699849045687
0.0699713254276
0.0701106902306
0.0701892680665
0.0700235904949
0.130241476125
0.0701383700551
0.0700944150693
0.0702877002013
0.0701540706759
0.13093484933
0.0699221733792
0.0699840901197
0.0700358835301
0.141231381308
0.0704828974815
0.0703550801572
0.0704542374634
0.0704939859852
0.141719445234
0.0700886080153
0.070262112094
0.0702870983747
0.126773439581
0.0706699696128
0.0706464803472
0.0710052918079
0.0709192690472
0.133790082929
0.13860006717
0.0710679489438
0.071029286411
0.0714244927709
0.0712380021932
0.143539631256
0.0707606345073
0.0706882108339
0.127476457499
0.0701386064102
0.0703654676731
0.0703866614638
0.070287254753
0.0703198638382
0.0701159635147
0.0702327491266
0.0705279167216
0.0705986416485
0.0704092484007
0.0704488884568
0.0701787835963
0.133150042668
0.0708718958567
0.0707905485998
0.0711153817889
0.0710850689806
0.139187275886
0.0704472982045
0.0707098089505
0.0707362677248
0.0706491111884
0.0706888071985
0.0704133317141
0.0704628325419
0.0709103008911
0.070978204599
0.0707444289182
0.0709032680685
0.070495712932
0.143078152575
0.0711937644465
0.0711266935488
0.125612964069
0.0785606106084
0.0782984975786
0.0829602959337
0.0826979161967
0.135350361654
0.13728106401
0.0836656550023
0.0832743198
0.0893712994807
0.0888534199972
0.144761619233
0.0801962193477
0.079844253632
0.129505402288
0.131788064117
0.0808880110878
0.0805245285593
0.0857608804485
0.0853279383067
0.140465717806
0.142260682977
0.0862890550364
0.0860461915289
0.0789452019891
0.07877546181
0.12620198452
0.0706854308115
0.0717852884504
0.071782228825
0.0716908548721
0.0717536053581
0.0706668725125
0.0709880019791
0.0723738509413
0.0723936443868
0.0722595902161
0.0723339222831
0.070963049238
0.134670694727
0.0823044851189
0.0819153421103
0.0842894956674
0.0839557852176
0.137910088959
0.0710461736104
0.0724879283484
0.0725406609788
0.0724303084503
0.0724707466277
0.0710375632788
0.0713604972901
0.0733148855689
0.0734814623833
0.0729410935109
0.0731114184876
0.0712963530707
0.14432164043
0.0881685482621
0.0874775512372
0.0707441281647
0.0719143827738
0.0719656118891
0.0717937622791
0.071856349049
0.0707165198695
0.128443533485
0.0794647007483
0.0791439578455
0.0816412442445
0.0813094454803
0.132577216747
0.0708468452573
0.072169274695
0.0722180398363
0.0720239225005
0.072089106521
0.0708181839344
0.0711104323444
0.0726572216942
0.0727077763877
0.0725968528449
0.0726186127594
0.0710908619096
0.139757810376
0.0849746334887
0.0846715328621
0.0870411605617
0.0866413487792
0.142727307115
0.0711537979671
0.0728076138718
0.0728602220365
0.0727249829477
0.0727445922829
0.071129995892
0.070644249876
0.0706243484048
0.0709440067894
0.0709180450525
0.0706111456265
0.0706060099605
0.0706165648229
0.0706277992002
0.0708688040335
0.0701956947012
0.0701964742933
0.0701996178591
0.0702076722639
0.0702285612379
0.0702808304249
0.0704060333747
0.070680314624
0.0706849789677
0.0709029129665
0.0710052885701
0.0709863098155
0.0711493735873
0.0709607711464
0.071085928089
0.070501726949
0.0701495163035
0.0701500805025
0.0700970672286
0.0701645941563
0.0701525451934
0.145584867703
0.152095699544
0.0703389944169
0.0703240526371
0.0703980487918
0.0701875918213
0.149232199744
0.0706547604938
0.0704622947743
0.0706743065563
0.0706898132545
0.149600690225
0.0702620971724
0.0704928824382
0.0705618640226
0.147064691972
0.0717342935039
0.0715106724941
0.071921292709
0.0719240184444
0.151328708271
0.0718379586805
0.0717775776654
0.14755812436
0.070578060498
0.0712079890424
0.0712267118895
0.0710267513502
0.071188836362
0.0705030630903
0.0707047785058
0.0712344549436
0.0712259402346
0.071213621141
0.0712170148558
0.0707154915653
0.150909700685
0.0718998220692
0.0718506989443
0.146036211647
0.0903122852994
0.0898230573821
0.0968913233568
0.0965109619343
0.151785704227
0.0934619425989
0.0929093046536
0.148771404353
0.149954145783
0.0943104982375
0.0938984237271
0.0913342366447
0.0908419304651
0.146545632464
0.071667392157
0.0739924192417
0.0741236124732
0.0736494737725
0.0738202482261
0.0715916699115
0.0719264650087
0.0754878199991
0.0755963953746
0.0752572357393
0.0753888207291
0.0719261373466
0.151556847899
0.0961411171875
0.0957227374286
0.0718180505898
0.0745046163796
0.0746363384886
0.074264605529
0.0743774412076
0.0718045236677
0.148111596247
0.0923380411872
0.0918317043465
0.0952354285464
0.094729194973
0.150362497638
0.0718694307388
0.0749812039851
0.0751063024509
0.0747597477433
0.0748701022195
0.0718534722717
0.0709085514866
0.0709049120247
0.0711985090601
0.0712380639776
0.0708942272651
0.0709039993744
0.0708703528291
0.0708790663813
0.0712328835725
0.0711971661031
0.0708954661417
0.0708995185101
0.0709128633465
0.0708953480391
0.0712205173521
0.0712221541291
0.0708713407479
0.0708366103255
0.07079184166
0.0707439218989
0.0711360228971
0.0710802642261
0.0706984410172
0.0706674952483
0.0701993118812
0.0702017286429
0.0702164632876
0.0702132320131
0.070249125772
0.0702392676679
0.0703137986754
0.0702999849426
0.0704487945125
0.0704327177361
0.0706646771108
0.0708366626546
0.0708923175477
0.0708736269898
0.0706215170107
0.0702722653492
0.0701800960992
0.0704066456368
0.0702473997315
0.0702930717915
0.0702230026973
0.152614879932
0.157325742262
0.0704229454168
0.0705820468599
0.0705808989581
0.0704238108548
0.155198127116
0.0706791695365
0.0706666777423
0.0707059365858
0.0706942675579
0.155480453215
0.0704155035894
0.0705791438518
0.0705952866036
0.153859978878
0.0720256049209
0.0719398176453
0.0722877826083
0.0722534050197
0.156602348708
0.0721410422964
0.0720539057006
0.154158721062
0.0706590461035
0.0712600741705
0.071302226353
0.0712237695949
0.071244999202
0.0706458019954
0.0707123926975
0.071347820147
0.0713461490742
0.0713123278244
0.07134188893
0.0707037746755
0.156307018705
0.0722268694826
0.0721630158732
0.153213471598
0.0980280336057
0.0974223077411
0.104147283453
0.10370878023
0.157072015597
0.100882844831
0.100412988654
0.154888515074
0.155751443493
0.101720378926
0.101315412051
0.09893844228
0.0984991847805
0.153574300937
0.0720027754475
0.0760855142572
0.0762221783327
0.0757573594191
0.075936424942
0.0719708394779
0.0722832415017
0.0777876016729
0.0779220906084
0.0775201618191
0.0776600332264
0.0722717849321
0.156847446548
0.103317623411
0.102925662502
0.0721205739511
0.0767035227652
0.0768525390688
0.0763644534036
0.0765306134986
0.0720905116308
0.154521299739
0.0998861413852
0.0993823788507
0.102517319434
0.102115773917
0.156024164128
0.0722012357102
0.0772423093706
0.0773762110529
0.076985395763
0.0771160712815
0.07218500246
0.0712277228102
0.0708684895847
0.0708675657339
0.0708709371357
0.0708670146544
0.071234404152
0.0712770355095
0.0708981881762
0.0708844687415
0.0709289846028
0.0709175334142
0.0712918004595
0.071321652166
0.0709442475168
0.0709394614766
0.0709586565156
0.0709511582614
0.0713293670153
0.071350250404
0.0709637204774
0.0709624906931
0.0709581372298
0.0709619053995
0.0713499670659
0.0702119487074
0.0702486146037
0.070250807923
0.0703265142116
0.0704561135537
0.0706446827189
0.0707830528752
0.070832298812
0.0708222778414
0.0706569340939
0.0703949341701
0.0702585763367
0.070264578291
0.0704297643421
0.070312973405
0.0703078118315
0.070264310007
0.157546222511
0.160610519001
0.0704307415716
0.0706023664577
0.0706068823558
0.0704298708143
0.159127743897
0.0707031217957
0.0707027650159
0.0707576376929
0.0707143969391
0.159248855371
0.0704299411591
0.0706218977767
0.0706458883704
0.158186021919
0.072332711748
0.0722855263236
0.0726131347514
0.0725450206398
0.160128134151
0.072466241394
0.0723618261336
0.158401564945
0.0706972776473
0.0713447755351
0.0713917543243
0.0713321059717
0.0713267016615
0.070693094472
0.0707444404928
0.0714018856747
0.0714299165594
0.0713912868559
0.0713889648524
0.0707297620081
0.159797875274
0.0725103782575
0.0724781938678
0.157756906582
0.105098417264
0.104644397727
0.110782349755
0.110434692248
0.160562882842
0.107639774297
0.107125410841
0.158958720073
0.159385719043
0.108412807234
0.108050351703
0.105850187385
0.10549335128
0.15797051951
0.0723115807278
0.0783482065208
0.0784805705047
0.0780681841428
0.0782102349732
0.072294993331
0.0726065239753
0.0801910437058
0.0803189032299
0.0798397043726
0.0800444940651
0.0725890437625
0.160439142848
0.110068262262
0.109568559894
0.0724493435342
0.078973973059
0.079137465548
0.0786087982344
0.0787688071837
0.0724147918031
0.158658038147
0.10660066198
0.10619881068
0.109121196682
0.108761023308
0.159559607525
0.0724933197186
0.079532754344
0.0796645034624
0.0792805330207
0.0794130092606
0.0724892452937
0.0713234922677
0.0709453848256
0.0709493264193
0.0709426839007
0.0709416638364
0.0713229003392
0.0713716202555
0.0709665540865
0.0709515726203
0.0709876870778
0.0709797955614
0.0713844949825
0.0713850266129
0.070988310832
0.0709910883702
0.0709980494914
0.070992384329
0.0713818446679
0.0714172397961
0.0710168788349
0.0710065847734
0.0710327121933
0.071026460732
0.0714239988479
0.0703330454593
0.0703201464401
0.0704635693402
0.0706291284081
0.070748648146
0.0707864130818
0.0707834347533
0.070668719615
0.0704517497494
0.0703114008963
0.0702510920439
0.0702595979602
0.0704410760274
0.0702974570482
0.0702989659688
0.0702553600132
0.16067068434
0.162640516312
0.0704818906185
0.0706743160937
0.0706923153125
0.0704513197204
0.161806857433
0.0708073383493
0.0707717286195
0.0708283110385
0.0708018123189
0.161771801586
0.0704686832667
0.0707096254267
0.0707354553038
0.161035428493
0.0726517160169
0.0726212145534
0.0729352377982
0.072846710368
0.162107857249
0.0728415124888
0.0726766080284
0.161295002502
0.070803713429
0.0714308755504
0.0715133583933
0.0714311600772
0.0714218711117
0.0707864582165
0.0708167319134
0.0714724458908
0.0714854710741
0.0715182401565
0.0714715085879
0.0708013502449
0.161978396031
0.0728309284352
0.0728547734441
0.160757894035
0.111533138659
0.11115518194
0.116729619056
0.116278526338
0.162536055872
0.113974312915
0.113584740848
0.161813767027
0.161804319218
0.114559169594
0.114281317625
0.112214185855
0.11187783497
0.160871140073
0.0726412834855
0.0807816121453
0.0809219678463
0.0804642632376
0.0806307423953
0.072633565321
0.0728835950704
0.0827684786366
0.0830085894151
0.0823988768149
0.0825697133248
0.0728697208528
0.162297958012
0.115836080373
0.115455777634
0.07279829872
0.0815208444159
0.0817373934115
0.0810730235017
0.0812707157098
0.072725985157
0.161655721088
0.113069044629
0.112585666574
0.115137484037
0.114835098468
0.161875221913
0.0728324243378
0.0821109759585
0.082244877707
0.0818813544
0.0819987790868
0.0728541058002
0.0714280939223
0.0710406839252
0.0710380037624
0.0710458638527
0.0710432141704
0.0714207879432
0.0714635789809
0.0710718022015
0.0710508923201
0.0710996462575
0.0710935910562
0.0715002310861
0.0715154988755
0.0711012827394
0.071102878825
0.0710767314248
0.0710800973809
0.0714858773314
0.0714797135991
0.071085679932
0.0710807175841
0.0710883112326
0.071087464288
0.0714779748776
0.0704962005442
0.070444691193
0.0706106428647
0.0707065446631
0.0707482900189
0.0707507573365
0.070670002088
0.0704890888302
0.0703447108654
0.0702838485022
0.0702497547773
0.0702524351603
0.0704964529131
0.070505573636
0.0703034088183
0.0702963587957
0.0702426370437
0.162658452419
0.16403645745
0.0704936668554
0.164168417804
0.165836306146
0.0705551559674
0.0707407352933
0.0707384055687
0.0704973118166
0.0707730244111
0.0707927212964
0.0705185339684
0.163279288974
0.0708168639754
0.0708245192753
0.0708503226564
0.0708292671367
0.163465478656
0.0704937654507
0.0707387639513
0.0707516245354
0.164989278322
0.0709095396218
0.0708675277572
0.0709370221995
0.0709201901775
0.165054040982
0.0705387565633
0.0708155573648
0.0708305839528
0.162727112585
0.073103174475
0.0729779755046
0.0738635434136
0.0737032050983
0.163890961361
0.164941761035
0.0742208728444
0.0739288450327
0.075063617055
0.074854889626
0.165848449391
0.0733719083742
0.0731554174269
0.162804771835
0.0714861177284
0.0714812207053
0.0708019367574
0.0708385816411
0.0716256446112
0.0716576625371
0.163893935073
0.0736459479965
0.0734649624719
0.0744388271795
0.0742938981937
0.165002918228
0.0709007215835
0.0717741762876
0.0717748943637
0.0716716893151
0.0717634645444
0.0708908553562
0.0709386748967
0.0718642938783
0.0718937619661
0.0717859146813
0.0718350677432
0.070933977303
0.16567235376
0.0747531801765
0.0745048848503
0.162666256795
0.117257242077
0.117037356743
0.121184679623
0.120960996048
0.163960317101
0.16440019062
0.121762009712
0.121443594725
0.125428845776
0.125292436322
0.165905750439
0.119062991334
0.118700315002
0.16312080766
0.163697697732
0.119764439282
0.119430491114
0.123387782032
0.123193433265
0.164980388128
0.1651872743
0.123913987904
0.12362971307
0.117668187012
0.117456568587
0.162689649236
0.0832041996545
0.0833798257164
0.0730247467313
0.0738097233451
0.086118079594
0.0862993578222
0.0857623098744
0.0859432350908
0.0737609924525
0.163908295668
0.120749657778
0.12053767073
0.122605934275
0.122195733728
0.164742391042
0.0741012931283
0.0870610624924
0.0873863708608
0.0865124217385
0.0867667365533
0.0740076791306
0.0750014646727
0.0897363031936
0.089899865467
0.0893683870412
0.0895669354374
0.0749325769243
0.165905258961
0.12513284918
0.124910792047
0.162950489062
0.118295556158
0.117937099371
0.120302412156
0.12003854351
0.163846454372
0.0743884128478
0.0879234255983
0.088099796764
0.0875963415255
0.0877622102333
0.0743449315834
0.165006313223
0.123017959171
0.122837758932
0.124589947145
0.124216354527
0.1653854366
0.074669866458
0.0888340854357
0.0891018258225
0.0883144295016
0.0885703746506
0.0745861235861
0.0730642352304
0.0835481345679
0.0837156723549
0.0708048729748
0.0714922107128
0.0715478822599
0.0839073917426
0.0841435596626
0.073220805917
0.0732938702115
0.0844061270267
0.0846589800409
0.0715856124581
0.0716172405427
0.0708334695214
0.0849168588033
0.0851660064102
0.0735506734052
0.0735981776779
0.0853670570132
0.0855675681958
0.0714834630843
0.0710715466574
0.071081167345
0.0710515875612
0.0710570833432
0.071479102912
0.0715084845631
0.0710633266812
0.0710550892073
0.0710847787133
0.0710740156746
0.071525736004
0.0716124034849
0.0711120636126
0.0711050054613
0.0711113379901
0.0711149626299
0.0716172291828
0.0716355143782
0.0711114377034
0.0711099886217
0.0711202287654
0.0711153274423
0.0716446478032
0.0716934408365
0.0711335424924
0.0711242623989
0.0711755447681
0.0711568369375
0.0717265540046
0.0717772143341
0.0711788852131
0.0711791488625
0.0711786781865
0.0711778896229
0.0717718338794
0.0717985808383
0.071187752978
0.0711829141567
0.0712087419145
0.0711945098599
0.0718129456538
0.0718788440606
0.0712222939381
0.0712203368592
0.0712205672219
0.0712230049084
0.0718895430423
0.0708758151291
0.0705976847652
0.0707049784944
0.0707281741646
0.0707259469938
0.0706677939325
0.0705167838555
0.0703772247306
0.0703216955715
0.0702952739366
0.0702701084967
0.0702669245218
0.0702468467161
0.0702394716594
0.0702324770566
0.0702332269347
0.070232659534
0.0705741580722
0.0702945089518
0.0703044132877
0.0702239928998
0.0703235622618
0.0703464964411
0.0702446902276
0.165804439686
0.167820949716
0.0706114436221
0.0708479720564
0.0708629203561
0.070587033643
0.166803334153
0.0709795739729
0.07093543783
0.0710118972913
0.0709825492975
0.166674368964
0.0705994605489
0.0708744493155
0.0708902815724
0.166252341569
0.0753398400222
0.0751165747399
0.0763704730139
0.0760800947087
0.166995242719
0.0756673330064
0.0754350744368
0.166630909719
0.070968749256
0.0719280888307
0.0719894891099
0.0718869485063
0.0719116223869
0.0709478696229
0.0709943124372
0.0720673035516
0.0720738111496
0.0719984560006
0.0720472078027
0.0709851472955
0.166740862929
0.0759694211275
0.0757227229714
0.165836022472
0.125729758836
0.125565986741
0.129349165683
0.129088189904
0.167742586935
0.127358784585
0.127213604496
0.166847549247
0.166613917793
0.127634587964
0.127493813659
0.126258750588
0.12594762365
0.165975132127
0.0752492554946
0.0904791057569
0.0907515858696
0.0900668401429
0.0902535258475
0.0751757560339
0.0763025335721
0.0933955317358
0.093638990494
0.0927327676305
0.0930579134743
0.0762036059253
0.16743201632
0.128651283773
0.128272800601
0.0756071053025
0.0915385995341
0.0916901746782
0.0910636821697
0.0913511070331
0.0755354720948
0.166815147422
0.12702369936
0.126682589373
0.128019521486
0.127809662222
0.166627982762
0.0758680856545
0.0922161857036
0.0924625840616
0.0918393549194
0.092005823573
0.075783981232
0.071886838121
0.0712047949615
0.0712067657639
0.0712155497098
0.0712097067685
0.0718967907556
0.0719550836741
0.0712501998655
0.0712273533463
0.0712664812802
0.0712615542049
0.0719735687077
0.0720089909234
0.0712721167848
0.0712687480124
0.0712756513757
0.0712718389005
0.0720253989983
0.0720784377158
0.0712800625604
0.0712796730004
0.0712883109983
0.0712833485842
0.0720775763752
0.0713844517563
0.070676549705
0.0707346685837
0.0707205496946
0.0707213803458
0.070680362195
0.0706698953999
0.0705694400069
0.0705394937273
0.0704256757502
0.0703988641216
0.0703290230729
0.0702791659943
0.0702474058731
0.0702360171368
0.0702384698369
0.0702598221019
0.0706199137862
0.0703701881169
0.0703930763053
0.0702690758752
0.167777512311
0.168223103715
0.0706481831278
0.0709025253403
0.0709141990473
0.0706283886314
0.168526329896
0.0710752874793
0.0710324296235
0.0710889876154
0.0710767943391
0.168735158645
0.0706363500514
0.070916955719
0.0709259867837
0.167359384285
0.0765639276239
0.0764235073349
0.0776238495024
0.0773415736318
0.168221766043
0.0770990344137
0.0766418068181
0.167396395738
0.0710742474826
0.0721618354986
0.0722590908054
0.072071581357
0.0721098412589
0.0710593693523
0.0710886389075
0.0722527814898
0.0723392828937
0.0722412273812
0.0722382340041
0.0710846945746
0.168485531462
0.0772985354801
0.0771689951168
0.167576955331
0.129571806133
0.129486924846
0.131851678462
0.13170874201
0.168123125502
0.130778374664
0.130285056809
0.168074547421
0.16878500179
0.13132075451
0.131127973565
0.129723963161
0.129645083152
0.167396724414
0.0765140899012
0.0941053219471
0.0942295287008
0.0938282440579
0.0939751654776
0.076468764098
0.0775012272975
0.0964438718536
0.0966978866481
0.0961660793343
0.0962727847524
0.0774081416941
0.168127646308
0.131593601888
0.13150075666
0.0769675478494
0.0949502863866
0.0953784137616
0.0943733415888
0.0945966721541
0.0767791773048
0.167604519129
0.129974893422
0.129821853268
0.131439374877
0.131397758697
0.168731226513
0.0772563800873
0.0959928111596
0.0960817845488
0.0956805819761
0.0958713355349
0.077213893273
0.0720743926848
0.0713025887437
0.0712963694157
0.0713309746227
0.0713110197555
0.0720832722635
0.0722253107917
0.0713698843736
0.0713613130847
0.0713732347249
0.0713740029391
0.0722534265076
0.0722259461939
0.0713648982598
0.0713679917257
0.0713730779497
0.071368154417
0.0722283189223
0.0722884745651
0.0713924615369
0.0713822421454
0.0714038212642
0.0714014854514
0.0723208447335
0.070788845486
0.0707215590462
0.0727473995049
0.0720123881313
0.0710639258789
0.0709768939785
0.0744503388559
0.0844004037452
0.0706762065493
0.0707436397603
0.0706920824243
0.0705903863653
0.0704579599722
0.0703608300858
0.0702974132695
0.0702649791867
0.0702421232604
0.0702378294909
0.0702522725609
0.0702816656472
0.0706596519582
0.0704174079974
0.0704455925361
0.0702962759045
0.168503202172
0.170169204115
0.070702511776
0.0709309785358
0.0709286634823
0.0706724158166
0.169027394505
0.0711696562458
0.0711014570762
0.0711533311629
0.0711470828102
0.168890111429
0.0706872817569
0.0709161049039
0.0708993102466
0.169601787459
0.0780457699091
0.0777589072269
0.0791427630376
0.0787971874567
0.169501859794
0.0783202319828
0.078107538137
0.169638836896
0.0711702463294
0.0723743271742
0.0724511932369
0.0723500702256
0.0723512770295
0.0711363013969
0.0711558855048
0.0725065482655
0.0725791075957
0.072454184818
0.0724750239711
0.0711478200832
0.169074562439
0.0786650308251
0.0783919520163
0.169031138457
0.132435851101
0.13206126348
0.134972629077
0.134831239505
0.170048956312
0.133474425315
0.133400731495
0.16927066785
0.168842441987
0.13362526523
0.133557699972
0.133122291995
0.132870671985
0.169426743649
0.0779839913803
0.0977421683961
0.0979758194858
0.0970139271957
0.0973792068184
0.0778865777244
0.079112588378
0.100362586768
0.100478909511
0.0996202912904
0.100070682544
0.0789964066705
0.169851115158
0.134605150875
0.13415770883
0.0782515188639
0.0983672939935
0.0985238976308
0.0981227431829
0.0982420041502
0.0781810107174
0.169560280041
0.133340817632
0.133263632764
0.133835260763
0.133692938327
0.168882104863
0.0785615221428
0.0991382416762
0.0993543846258
0.0987125226806
0.098922635187
0.0784706473723
0.0723468643342
0.0713994961615
0.0713995958061
0.0714217030666
0.0714041267261
0.072338889234
0.0724066240437
0.0714900385258
0.071472529621
0.0715076449536
0.0715043125061
0.0724333850497
0.0724446357516
0.0714602045087
0.0714938684827
0.0714652484775
0.0714591205653
0.0724571010052
0.0725601889269
0.0715317589785
0.0714941347128
0.0715427300399
0.0715466656528
0.072577563204
0.0707737036497
0.070771040264
0.0890543174188
0.0868681491962
0.0707596580668
0.0707646217359
0.0881492776151
0.0708586793981
0.0708806095589
0.0706813373665
0.0707327906725
0.0841363431226
0.0708099934923
0.0707644226813
0.0865447173651
0.0707107000256
0.0707381952531
0.0707672236036
0.0707613339445
0.0707697676995
0.0707796554453
0.0886985117811
0.0717202445601
0.0717593231171
0.0708419889822
0.0708618062851
0.0878820166461
0.0708075332143
0.0707965192301
0.0707597836994
0.071700932957
0.0716971026428
0.0884138114059
0.0709692681759
0.070949837365
0.0708729020153
0.0708592975997
0.0709355418377
0.070949288922
0.0876002182509
0.0716696112082
0.0716948711944
0.0715563860675
0.0716189642281
0.0872745558655
0.0707536123197
0.0707875892414
0.0707849674638
0.0857552388842
0.070833169199
0.0708261703874
0.0708496184879
0.0709289007084
0.0709035038527
0.0709566212824
0.0709457497243
0.0708589490352
0.0707984639451
0.0708214210297
0.0854646317294
0.0707827978234
0.0707863705356
0.0707972538841
0.0816861826145
0.0707783867886
0.0708299280754
0.0707782814139
0.0707709301879
0.0707768186431
0.0862746043675
0.0715130490006
0.0715231230353
0.0715090371116
0.0715248830239
0.0860182808789
0.0708800837283
0.0708798977152
0.0708214820995
0.0708311620532
0.0709052198555
0.0708967257571
0.0850889562909
0.0714091993635
0.0714765519205
0.07133538297
0.0713549827858
0.0846977388704
0.0832099272627
0.0708681128194
0.0708091117667
0.070787441582
0.0707772884305
0.0707935851737
0.0708762324529
0.070847526287
0.0708182905566
0.0838717491192
0.0713780880761
0.0713683432032
0.070809102821
0.0708102700789
0.07079061122
0.070792465538
0.0707244468106
0.0812914219945
0.0706948350886
0.0707088751313
0.0706958375336
0.0707963677487
0.0707359212625
0.0706973391527
0.0709984562623
0.0708732800702
0.0827769632111
0.070817799871
0.0708593211119
0.070840971409
0.0713209248614
0.071357314382
0.0835730563325
0.0708355740695
0.0708606781923
0.070844818453
0.0708518499135
0.0708523772884
0.0708348472517
0.0823958164239
0.0713063417287
0.0712936907594
0.0715033511673
0.0713796169785
0.0820420103947
0.0708397807433
0.0708856167878
0.0708899902475
0.0794300366165
0.0708857289773
0.0710060432423
0.0708197828757
0.0708327095328
0.0708991055549
0.0718052696624
0.0712903289044
0.0782952854018
0.0706816402115
0.0707052281228
0.0707189007449
0.0708056434167
0.0707478517821
0.0707118272861
0.0807748637343
0.071664877949
0.0715719716623
0.0709487230183
0.0709191675527
0.0710073650851
0.072126536892
0.0718668810919
0.0801848773921
0.0711472865548
0.0712051091782
0.0709827875527
0.0708936243979
0.0712544017551
0.0712280269355
0.0766740967318
0.0729470762333
0.0724668998541
0.0894200081602
0.0707552965573
0.0706329502678
0.0704880714911
0.07037848659
0.070315751779
0.0702742980996
0.0702570798981
0.0702459889165
0.0702469487699
0.0702736106332
0.0703181571763
0.0707222742218
0.0704849498388
0.0705048509833
0.0703346957934
0.170221643753
0.169816001563
0.0707271057029
0.070874951097
0.0708705017348
0.0707378778822
0.170146350006
0.0711201208806
0.0711337935016
0.0711121099286
0.07113552454
0.170650917328
0.0707354926388
0.0708524757128
0.0708486444645
0.169623072402
0.0793604507352
0.0791661116135
0.0807908154473
0.080351002272
0.170440625718
0.0798026498815
0.0794682740986
0.169508412352
0.0711059280366
0.0725758008191
0.0725874784998
0.0725814875395
0.0725647132792
0.0711139388346
0.0711179076971
0.0728433906298
0.0729086329984
0.0726100815562
0.0728184528926
0.0711315713719
0.170834764918
0.0802456238436
0.0799202488292
0.170190972522
0.135157888144
0.13507203205
0.137044340238
0.13697777131
0.169811905504
0.135816189069
0.135560916691
0.169661340841
0.170892296503
0.136373336389
0.13618523593
0.135424728627
0.135300812378
0.169918653675
0.0792740571174
0.100758011038
0.101024063302
0.10053936985
0.100602040475
0.0792113315892
0.102661586592
0.102924222341
0.080478646946