/*--------------------------------*- C++ -*----------------------------------*\
  =========                 |
  \\      /  F ield         | OpenFOAM: The Open Source CFD Toolbox
   \\    /   O peration     | Website:  https://openfoam.org
    \\  /    A nd           | Version:  8
     \\/     M anipulation  |
\*---------------------------------------------------------------------------*/
FoamFile
{
    version     2.0;
    format      ascii;
    class       volScalarField;
    location    "1e-05";
    object      T;
}
// * * * * * * * * * * * * * * * * * * * * * * * * * * * * * * * * * * * * * //

dimensions      [0 0 0 1 0 0 0];

internalField   nonuniform List<scalar> 
49758
(
350.000000093
350.000000319
350.000001295
350.000005294
350.000021766
350.000089623
350.000369235
350.001524585
350.006300467
350.025978629
350.106639658
350.048199913
350.097546365
350.21837368
356.560638846
350.706832452
405.497675778
368.288440765
359.847247851
350.405194916
360.098420029
351.266355394
352.715972593
350.951860557
351.857043171
374.351302042
364.693364693
350.130885582
353.571493647
364.387063316
373.786917093
352.855666713
363.934394404
355.724548779
385.839177964
369.791016746
350.937508965
348.769605222
351.001983457
368.985765225
358.85974443
361.475675429
360.289939129
354.659899797
351.981341496
353.931243465
359.011812434
368.880232419
379.741641284
360.141622154
367.807620382
362.143969138
350.228149016
366.16526142
352.43016825
355.560813457
352.851549983
351.339026466
359.368108601
355.052172373
359.151050915
370.463480736
351.621959531
356.81040944
354.881273561
359.207471632
355.299797765
360.695922253
361.917022585
359.658793992
358.648382935
361.793069242
358.848989477
403.210945961
375.920231275
365.175217866
347.299001196
348.145173681
368.197013598
353.551454636
355.8648785
374.627048151
363.582221794
365.732882044
365.430773526
363.745741246
361.608801992
363.461324955
372.925913192
351.43410705
351.922117575
363.646298542
362.893930827
362.196069748
369.837780321
374.495384037
395.681786213
365.853310754
370.492843327
369.91546818
353.917109079
365.84808354
356.521820545
349.738680671
348.438936293
347.414487676
349.828289204
349.238252355
350.368795949
368.911648136
348.961412434
349.569967582
361.454122527
361.149894214
360.475581207
362.581350204
358.134652731
354.990302442
367.096500391
362.743099549
366.291974953
376.679807438
359.974565293
364.541688916
367.167840244
366.941834925
364.521599575
365.220674999
366.529933564
365.562672759
352.37088787
350.79435688
350.059329009
359.321767428
353.452867146
358.484007303
350.296442177
350.878136442
371.669609368
352.559126823
350.787464439
350.380345197
353.183915711
351.833183979
353.934680531
362.125290106
362.750137743
362.273189793
361.482905286
362.523696118
362.371009055
361.421717463
360.247398156
361.339057303
350.000022563
350.000057516
350.000187406
350.00060621
350.00197001
350.006388537
350.020655469
350.066345569
350.211884112
350.674836234
352.038671337
353.571152615
357.48318083
355.875346565
354.235631319
354.124015122
368.434273551
381.084455982
351.215632617
354.024790301
351.705787428
354.69301844
372.240738201
350.292151419
352.468433042
349.180240792
349.853016331
373.260884988
352.548596049
350.406642083
350.104690012
369.290145754
347.6451091
348.234943066
345.93103422
346.283912725
377.61318959
346.968020034
347.470288395
369.793362944
350.72654912
349.295070629
349.11163992
350.486524636
349.863502271
351.266243286
349.322017763
348.28808611
348.124665115
348.853193713
348.564023853
349.564866141
376.573174446
346.541370016
346.874743347
368.759528936
346.579956949
346.853721683
344.956549666
344.927451462
379.940330074
345.180283409
345.337224664
371.353064076
374.644863277
345.260586206
345.083369476
345.983632314
346.124637249
368.981342692
347.760825134
346.21424618
346.10558399
346.716846112
346.402092731
347.870293739
345.986703288
344.428014439
344.410158435
344.696665163
344.524504494
346.110165994
378.795846001
344.944948331
344.994019996
347.085832154
345.460927591
345.293276354
345.92030859
345.6564594
347.196142517
370.484391033
345.542108926
345.774476148
345.07606103
345.20774547
375.668297768
346.698602631
345.078067012
344.907581897
345.201813633
345.16753287
346.818976009
350.000283123
350.000608717
350.001833649
350.00535281
350.015565157
350.044560057
350.124946918
350.342204321
350.89865278
351.924671806
352.651028607
353.354392137
351.059721051
350.634228181
349.82192397
352.060673549
350.607750762
352.218409461
349.985392436
349.996757154
350.343979094
382.505458796
401.044759356
349.849110652
402.265016134
419.245596336
349.874314929
349.895919823
349.684964374
350.0437375
349.523844233
349.581290404
349.835784686
391.185837182
348.923126577
349.112084806
348.805551793
348.841074885
392.395682636
349.839854621
349.463037673
349.479006909
410.77412912
348.87387098
348.848331996
348.652908453
348.817305188
411.762383067
349.883829411
349.563038625
349.502120517
385.681577069
345.574117216
345.875547555
345.303496164
345.333956742
397.172036115
405.770006952
345.195253803
345.285824743
344.790939981
344.959207107
415.323489106
345.366854788
345.522125167
386.782889957
348.992596971
347.754417831
347.623607969
347.999874948
347.864041223
349.028567366
348.784557067
347.404346666
347.379119168
347.483380364
347.400545611
348.768477421
396.062769126
345.329281964
345.354518238
345.085378789
345.173597825
406.864153436
348.877496517
347.169983664
347.076823458
347.331039183
347.258906454
348.886925414
348.674116942
346.290205141
346.164083554
346.9557611
346.394428089
348.761474896
414.432041285
345.032149135
345.058758253
383.745860141
345.11375343
345.071133705
347.740110136
347.592739726
399.92814722
403.429414606
348.229470254
347.93073908
351.461439554
351.188664173
418.05798768
345.838326867
345.541012321
389.868070506
393.837505244
346.38639526
346.109763155
349.524736607
349.188901341
409.275826269
412.765270234
349.809943697
349.707320399
345.113330317
345.130453362
384.689874302
345.712354748
344.330037303
344.238389604
344.391121395
344.368283954
345.794115925
345.327374774
344.643189332
344.643200639
344.544179492
344.609805539
345.343210903
398.592007535
347.281233275
347.032128299
348.567100573
348.373023836
404.558420885
345.204796035
344.696062021
344.747911442
344.681195509
344.708337877
345.247474519
344.834600937
344.956739827
344.916766858
344.905205028
344.965257185
344.903766044
416.676036026
350.794503037
350.42772935
345.40999113
344.225739792
344.257892027
344.211610245
344.224889533
345.464282144
388.174381129
345.276756493
345.127966315
346.909688777
346.713591488
395.031959916
345.348985296
344.527131476
344.536726872
344.330830324
344.418496617
345.34340108
345.119121919
344.835182069
344.885493384
344.804088361
344.801880109
345.133785946
407.956323485
349.001345664
348.835269
350.292801014
350.066060674
413.666522401
345.073563913
344.986265122
344.950414271
344.889906246
344.901698499
345.017131089
347.58279674
347.554465057
346.166862453
346.202600979
347.526300645
347.486386338
347.381229659
347.219205584
346.6302639
350.001927904
350.003490316
350.009788395
350.025925551
350.067777919
350.172498039
350.423223645
350.971943148
350.980607485
351.416893001
351.622049775
351.585717098
351.920199194
351.54994599
351.852722911
350.712889469
350.113384604
349.891200868
350.011078611
350.096467491
350.102594668
420.352813701
437.507405232
350.148685995
349.490879242
349.555513299
349.919931656
429.530770701
348.943450542
348.665122689
348.737464425
348.943101422
430.698184179
350.02810593
349.670507537
349.682586852
423.766363095
344.835351949
344.821052626
344.006472155
344.335395326
434.896102751
344.609672296
344.804614163
424.955323078
348.834324721
346.28509496
346.088301995
346.196182237
346.310187057
348.723108841
348.841809064
345.754925625
345.507738481
345.992715514
345.804877969
348.925979845
433.74423181
344.392001475
344.539530719
421.44706125
351.927511391
351.682066901
356.234357923
355.94378064
436.600289517
353.828281549
353.374611231
427.847408701
431.627418389
354.389095065
354.117457264
352.425256418
352.212472186
422.593347662
344.860784361
344.896490657
344.775658234
344.906726016
344.89637131
344.848285104
344.142982401
344.054274588
344.009191447
344.150470118
344.10888926
344.246439556
435.771903431
355.639972508
355.337329338
344.674649124
344.519195806
344.443396396
344.697897017
344.597387409
344.751983009
426.265739609
352.984743313
352.680612239
355.012079487
354.671722854
432.595065193
344.42232306
344.238246785
344.175558319
344.384898005
344.296067542
344.451128344
347.608413022
347.657028044
345.833777589
345.694879141
347.481990247
347.546280461
347.352701766
347.406896309
345.604977482
345.890440688
347.703388553
347.768922654
347.843399508
347.875047524
346.164604537
346.240282971
347.889539261
347.85833589
347.817654901
347.74979839
346.305518047
346.244454808
347.669802386
347.617841199
350.009172555
350.014016955
350.043535768
350.037062401
350.10896231
350.089221664
350.238496088
350.210850852
350.50879081
350.476660412
350.940685044
351.284282724
351.39616108
351.363184751
350.877669599
350.259445761
350.148517839
350.1915335
350.208470412
350.247366071
350.231399912
438.706533775
454.686040019
350.076198768
349.632924566
349.544089349
350.165779886
447.572968701
348.474658914
348.645649857
348.216552122
348.42187476
448.525443568
350.106031684
349.428587066
349.359041573
442.795341979
343.88558407
343.99013009
343.657628954
343.784365373
452.07331707
343.891081233
343.883701828
443.980030366
348.507045952
345.264941707
345.208402066
345.447665108
345.283734021
348.53983733
348.297081862
345.031357646
344.845036332
345.171714402
345.062226275
348.365809681
451.199963537
343.792502887
343.868269639
440.187057323
357.124787623
356.629333382
362.704559853
362.295419531
453.73518753
359.793334156
359.391371786
446.545338035
449.420172569
360.511446751
360.159980578
357.971906636
357.562276973
441.614461613
343.938822578
344.020985127
344.000272108
344.02372652
344.042638688
343.975378133
343.720834388
344.011967235
343.995309949
344.028353961
344.030651771
343.761974995
452.898459773
361.93332401
361.57418361
343.902677797
344.069337141
344.070513434
343.992809151
344.027401281
343.899216389
445.316363021
358.89021331
358.387463026
361.210585831
360.858504982
450.295568805
343.793264147
344.027468623
344.021352219
344.051179417
344.04098521
343.831583325
345.397262804
347.241157554
347.288434873
347.128752123
347.180212159
345.343437242
345.252039112
347.095591032
347.112580641
347.054518591
347.0785559
345.236071446
345.124765595
346.981221161
347.019952203
346.90683524
346.941476303
345.08866856
344.986591933
346.814883797
346.863042491
346.680949642
346.750119056
344.927524196
350.03447634
350.107849118
350.112335257
350.263935396
350.523375542
350.900604282
351.177033351
351.275689613
351.257194541
350.933114906
350.44001717
350.228439924
350.257610995
350.028527422
350.224199692
350.166325902
350.238857515
455.761826169
468.708196464
349.850006671
349.273550834
349.167348032
349.975114703
462.034916185
347.934388789
348.132314553
347.765168021
347.88076756
463.035646914
349.911758558
349.093375797
349.03396642
458.615251719
343.587860151
343.595772646
343.637633689
343.60366307
466.323151973
343.661401822
343.596009779
459.312576434
347.985714815
344.659892518
344.618594935
344.759687915
344.65404259
348.058648545
347.803679401
344.440178173
344.389414255
344.576533858
344.446075793
347.843920301
465.446326985
343.572173412
343.644442162
456.949067574
363.721811276
363.206859991
369.74578848
369.351184891
468.063231837
366.31237168
365.756271208
461.003919323
463.896462029
367.165829172
366.770808327
364.503338427
364.131415572
457.879054735
343.583036901
344.029167956
344.052781535
343.99724419
344.009389028
343.583404208
343.648363971
344.47937389
344.503359788
344.308991588
344.427904139
343.646165343
467.319583361
368.926080164
368.34525738
343.66248952
344.201397983
344.2337488
344.066684739
344.10807971
343.641663789
460.081569188
365.255972812
364.863798406
367.899124496
367.533653602
464.666146562
343.563798249
344.229920915
344.246862189
344.227118625
344.228580902
343.604741391
344.704333236
346.548898952
346.599246622
346.464965495
346.497701764
344.671651617
344.663102627
346.427751347
346.44521996
346.362725598
346.395627003
344.646767314
344.499288849
346.252799302
346.316753544
346.193692486
346.218160635
344.45374793
344.438508611
346.147879928
346.16665628
346.084359194
346.118452632
344.420805227
350.276620042
350.251161396
350.538188362
350.869397893
351.108124654
351.183727596
351.178179341
350.948288027
350.520620481
350.28263256
350.204212747
350.205290378
349.806268901
350.090494437
350.026531907
350.167825268
469.420594612
478.875071577
349.677520319
348.978771474
348.912912554
349.764071217
474.316069837
347.618076568
347.721062384
347.417985852
347.538883076
474.976669492
349.717988064
348.843384787
348.784587898
471.257311172
343.574742834
343.634815753
343.61857876
343.675702793
477.029607048
343.745999764
343.575693866
471.892866609
347.663000201
344.245192396
344.297860477
344.365309518
344.252193389
347.691213529
347.456068287
344.100590707
344.047224855
344.27572719
344.122256313
347.492999389
476.565858898
343.672572205
343.75264366
470.141122059
370.595213831
370.183342756
376.269815598
375.746428498
478.215397119
373.152549299
372.590343483
473.519305608
475.57348138
373.942033055
373.569627896
371.251325071
370.924380667
470.717120754
343.599135038
344.620385609
344.639531303
344.544645291
344.604408051
343.630237152
343.598602785
345.390282217
345.550609184
345.265935569
345.318138676
343.67466458
477.551483625
375.316670036
374.945168126
343.691209348
344.886853899
345.063529022
344.667018267
344.733615293
343.602275587
472.673091271
372.035185137
371.592557673
374.617692904
374.270787579
476.079505653
343.687119064
345.186024517
345.225925803
345.130210381
345.174164582
343.741842315
344.331404741
346.017030307
346.050480085
345.951751992
345.976325783
344.278785048
344.265098577
345.943286653
345.934336844
345.909137252
345.938517744
344.302868557
344.239783923
345.818501788
345.863007198
345.711938094
345.746314042
344.167992678
344.086672648
345.658120614
345.680873718
345.595747687
345.623822098
344.054940017
350.601827616
350.50026981
350.832160733
351.023884388
351.107407678
351.11247377
350.949821397
350.587844205
350.321201005
350.24076819
350.182425561
350.12649013
349.619909967
349.362003568
349.962251017
349.879165162
350.077681383
479.388908156
487.258827417
349.402079935
487.836038983
496.889340409
349.251757217
348.702059727
348.602042364
349.558371638
348.405919265
348.36085014
349.323192273
483.496400765
347.180019703
347.353651946
347.047088003
347.148022175
484.53322659
349.475961903
348.503652491
348.444115422
491.955903747
346.953187676
347.025789736
346.806050879
346.913556333
492.388195135
349.285062399
348.327816335
348.285021105
480.59283981
343.60726126
343.613084391
343.660521666
343.751733039
486.380294195
490.659221524
343.737129375
343.641589873
343.767943781
343.721721866
496.150466757
343.661730543
343.616250029
481.076327934
344.028230789
343.959296475
347.259672848
347.077131403
344.061315465
344.011263338
486.193251092
343.753448627
343.711690602
343.65089589
343.743927156
491.141495694
346.989337195
344.079415014
343.983011668
344.008646825
344.082564075
347.018097238
346.856404342
344.035673705
344.047524182
343.974663442
343.97892851
346.891700955
495.202077622
343.635900328
343.631874244
479.811467788
376.906438193
376.638621975
381.863523085
381.617734537
486.88083897
488.692521832
382.573242582
382.16245549
388.15167585
387.950750169
496.905996402
379.171599265
378.629296171
482.554290156
485.345153387
380.226619572
379.765302085
384.883152352
384.63440346
491.665240062
493.020693146
385.515495043
385.17113997
377.424249153
377.160244263
480.198419928
345.672184249
345.775769869
343.619857425
343.687538284
347.88712086
347.987865175
347.685242783
347.787373569
343.726607251
486.593809531
381.387577576
381.160974479
383.825331179
383.219788604
489.820034036
343.654911495
348.561070388
348.900804613
348.116092822
348.294396055
343.637136118
343.775051405
350.850498267
350.961590113
350.525401686
350.72151499
343.765718352
496.731283421
387.689602711
387.308529499
481.73806457
378.144535828
377.738782657
380.898921245
380.576011457
485.897118641
343.679458546
349.279127612
349.39051902
349.064622229
349.174725336
343.716332747
491.42585769
384.399076266
384.149579002
386.658596226
385.952097297
493.943790978
343.616520568
349.8970351
350.17650906
349.526468375
349.699528011
343.621898409
343.614464083
345.891678569
346.003977922
347.208450288
343.970739674
344.011952705
346.132133651
346.298667458
343.630860796
343.644625922
346.492209271
346.702638439
344.05493292
344.063106509
347.114736765
346.96162105
347.215247959
343.772535509
343.764513649
347.385038783
347.554212502
343.991613061
345.468137837
345.538460763
345.366078261
345.401976999
343.965923786
343.986333944
345.364795663
345.361772757
345.359537285
345.362640134
343.99851374
344.085977277
345.378933146
345.376877715
345.339658452
345.366440523
344.081867527
344.044853826
345.297592801
345.318234679
345.248605027
345.267291755
344.016218406
344.018676634
345.236894999
345.234701445
345.264425598
345.254814954
344.048570393
344.053980732
345.224040171
345.255068585
345.1585077
345.180799544
343.996015149
343.963065815
345.122139259
345.137844446
345.122600027
345.113014382
343.960458062
344.052784769
345.133036063
345.139255742
345.08217318
345.114728252
344.055596648
351.354679448
350.805619516
351.020664107
351.067024463
351.062766729
350.946267336
350.64249426
350.36735424
350.255154428
350.225681483
350.177209969
350.204483785
350.16318898
350.145231481
350.106277342
350.026701275
349.965881443
349.213936671
349.796521592
349.736252052
349.974100267
349.714193989
349.693178038
349.958748612
496.86387919
505.758899607
349.09754934
348.248312958
348.205618659
349.180796128
500.872379034
346.680337354
346.75056784
346.517742821
346.629170185
501.158087398
349.128687639
348.159589762
348.122373561
497.659049231
343.681887415
343.741385477
343.89847785
343.803419381
502.83999005
343.716381745
343.655821881
498.631419688
346.705752834
343.913833217
343.962506782
343.998845995
343.932713012
346.726359024
346.545979114
344.007716623
343.924778001
343.967377581
344.006456242
346.588644812
502.188658335
343.771531187
343.716829166
496.919141822
388.492780404
388.321595179
394.133178681
393.602633139
505.021495351
390.854442013
390.502788838
500.44025576
501.43238555
391.455810992
391.164822516
388.913753289
388.670272076
497.139338495
343.700380994
351.318159037
351.468124013
351.072876546
351.190846916
343.721598451
343.910919246
353.854987236
354.104578754
353.182047693
353.473096393
343.865735497
503.865940853
392.861295843
392.363006378
343.714765173
352.18953094
352.327553245
351.663582217
351.993906718
343.692572595
499.742325125
390.06539408
389.369448036
392.052638455
391.756211225
501.75554672
343.740580765
352.777660038
352.974104815
352.464465479
352.606322371
343.718843217
343.975267183
345.005010842
345.029660495
344.959077542
344.982683199
343.958851019
343.931057379
344.969777311
344.950515399
344.963283339
344.973406363
343.950904093
343.978001171
344.939855786
344.94831604
344.912175584
344.925204316
344.000235733
344.001169034
344.863653086
344.894263789
344.805954389
344.834828598
343.965274003
352.350829184
350.961469804
351.079003873
351.050750973
351.05332752
350.971368979
350.950907296
350.750225004
350.689481556
350.460083244
350.404801112
350.264042908
350.175812371
350.138565206
350.130379524
350.085662397
349.952166196
349.053416832
349.672948757
349.65420923
349.942087371
506.161131228
510.857211253
348.945817723
348.081538111
348.043819523
349.016327406
508.336490261
346.38122511
346.480909134
346.166404199
346.317672682
509.277205077
348.968284194
347.988316618
347.954001997
506.410452769
343.698666841
343.849806162
344.02449699
343.889203496
510.730441571
344.045227608
343.704497197
506.586949204
346.439463103
343.956606086
344.041626664
343.889598987
343.881594786
346.470395432
346.222869155
343.923376226
344.004163424
343.957901695
343.908329064
346.276893949
510.732191966
343.902882969
344.021791519
506.257165182
394.740002268
394.483381033
398.716058694
398.56660381
510.781751978
396.219207642
395.648338546
507.482714223
510.18830454
397.437853635
396.863942924
395.0523072
394.907451059
506.318532668
343.734332552
354.402574141
354.455981207
354.261025599
354.348874011
343.79124363
343.954172083
356.43639988
356.624555293
356.242298336
356.317105015
343.912258515
510.754756953
398.414608029
398.246683129
343.97941834
355.039164687
355.464363496
354.53602811
354.710653212
343.803651714
506.883675389
395.345312759
395.190464633
398.061552474
397.808327335
510.661994977
343.92911923
356.116619061
356.188555983
355.770255748
355.987472047
343.972806449
343.869280465
344.767519053
344.784330769
344.775094061
344.758659756
343.861550107
344.044953843
344.819048316
344.818929331
344.752914525
344.798065372
344.062266728
343.911769
344.672419087
344.708387732
344.650141723
344.660302603
343.906663022
343.971800604
344.652563852
344.651847429
344.622963669
344.645119413
344.004283778
351.180287916
351.043917649
354.950759309
353.560508849
351.717900455
351.530816747
358.0939774
373.846724684
350.960090817
351.096854206
350.99408273
350.792156671
350.527351512
350.328864102
350.201851613
350.150963261
350.125060506
350.11914538
350.087347891
349.931328674
348.920002905
349.633782888
349.631645668
349.932506508
511.182321329
519.446065262
348.857196662
347.914329625
347.866613066
348.893433821
515.364002536
346.091625729
346.122464416
345.848818166
345.96047155
515.262308941
348.876551412
347.792544744
347.728758478
514.136292953
344.038944795
344.053117548
344.349254292
344.044994951
516.589308599
344.073567589
344.036509005
514.937052108
346.145089538
343.821245151
343.936688462
343.966523412
343.80658879
346.131198062
345.899343743
343.834083809
343.934245598
343.933047994
343.836386805
345.924418246
515.666735336
344.013170875
344.060710047
512.006968841
399.252382045
398.887883394
404.666505993
404.31428649
518.706064757
401.873446722
401.642948228
515.359909583
515.175632981
402.178396089
402.048219644
400.572416156
399.954422957
513.191636011
344.056484207
357.445198562
357.738387949
356.840858591
357.087937975
344.054963427
344.382338217
360.005210652
360.125169726
359.024373345
359.615390815
344.257964969
517.755507244
403.794258636
402.942124131
344.076811903
358.143233079
358.278705609
357.910049881
358.027055492
344.067158296
515.321718282
401.354558835
401.008012392
402.462311714
402.28492783
515.25326111
344.026691922
358.697935789
358.80709551
358.430326955
358.586155559
344.048257578
343.878296009
344.504393677
344.558873211
344.480980399
344.477294493
343.813744151
343.879516865
344.58165438
344.55620428
344.573892937
344.587197631
343.916130285
343.882199342
344.427402225
344.525717661
344.386767655
344.40176655
343.864256047
343.904357678
344.466184778
344.403156133
344.454120149
344.477360446
343.937074525
351.152536733
351.139541266
380.24288096
377.315834335
351.03342175
351.00050023
379.089324444
350.52751553
350.479297723
350.965841438
351.071831686
373.457149392
351.172540675
351.057423665
376.891899474
351.030138214
351.086018189
351.139908515
351.093513743
351.119737268
351.157381164
379.778549162
350.56255859
350.561215676
350.617295196
350.579287961
378.743875718
350.834335148
350.847842089
351.006260543
350.668976761
350.588464804
379.422494342
350.088848074
350.107869393
350.493936879
350.504482573
350.122360074
350.197671211
378.358528821
350.712417902
350.708786252
350.633887686
350.672995276
377.889934435
351.004891558
350.858803108
350.888850618
375.824984784
350.721600761
350.620789548
350.609452318
350.28008942
350.281268637
350.261712713
350.275468302
350.597910028
350.780093878
350.726150722
375.390029489
351.165153215
351.157860103
351.183216863
369.748096785
351.138239595
351.218497762
350.908290896
350.925070997
351.093013699
376.537845794
350.691189415
350.64829135
350.788708908
350.779801331
376.195511781
350.290047936
350.322821769
350.633475451
350.692006039
350.42714657
350.442294148
374.816283468
350.717810077
350.778735468
350.721763819
350.708663775
374.267778317
372.060759642
351.053821938
350.829513206
351.126611298
350.972016988
351.033040554
350.441730203
350.43505469
350.746000139
373.063264142
350.916503701
350.835616055
350.764386313
350.437203145
350.432918228
351.150403105
351.022555976
369.15483607
350.998163339
351.026161863
350.999111063
351.185561362
351.067471948
350.999236693
351.458619542
351.104818911
371.384918948
351.110253468
351.213885437
351.250180104
350.949836211
350.942295904
372.614329683
350.548376229
350.667335603
350.936393781
350.987937166
350.704220304
350.731273513
370.810092019
351.049780703
350.943765961
351.595065158
351.281460502
370.282834603
351.25732607
351.290854029
351.318998074
366.396066883
351.288973335
351.507222174
350.74783547
350.831908822
351.175390847
353.11374432
352.083614907
364.682615066
350.967798422
351.003913195
351.035558393
351.171882709
351.055153808
350.996079671
368.380215384
352.145158948
351.837455551
351.313583121
351.059530567
351.282379683
353.384088165
352.696382982
367.500637241
351.616806732
351.790346103
351.485993682
351.302967785
351.918385618
351.904785189
361.979246639
355.226082082
354.215692348
380.754029051
351.115299268
350.877055915
350.588154198
350.366746659
350.236856479
350.157531206
350.139676759
350.130707336
350.127629414
350.100039632
349.94107586
348.835655091
349.636009875
349.602053726
349.934532059
519.779652023
523.465376839
348.66979346
347.627630528
347.553968745
348.804028891
519.953295729
345.538478991
345.733169095
345.303079042
345.522740898
521.112036214
348.742415311
347.440774357
347.359887074
518.957037778
344.198519882
344.296514954
344.801840715
344.478964852
522.633564343
344.132675778
344.165749875
518.74236312
345.550285384
343.772178392
343.443979864
343.931113811
343.820840741
345.633643594
345.344278593
343.694318575
343.622803916
343.413975455
343.674430776
345.442468583
522.524686974
344.426723592
344.209473261
519.798054582
405.263543087
404.959330819
409.327413316
408.942546327
522.835999415
405.988634149
405.682780485
519.046258831
521.909102463
406.866391527
406.556859961
405.665115449
405.540506572
519.447991502
344.231481371
360.353330179
360.530599086
360.164884291
360.204349456
344.271268385
361.613085865
361.895608701
344.559006495
522.661425929
408.560707126
408.078798277
344.112794273
360.718828884
360.87566922
360.593506219
360.647084837
344.128060873
518.737820272
405.650032287
405.678619809
407.513300159
407.138239046
522.334631751
344.368420084
361.329290365
361.403085221
361.217640472
361.31455739
344.291557892
344.686643818
362.209259878
362.485706823
351.114123049
351.059656986
386.257557951
343.927484552
344.369998648
344.424709498
344.207593074
344.267913316
343.857359337
383.78441851
350.950217938
350.89600989
385.120122948
350.150427531
350.075377131
350.99301612
350.963474206
383.428071507
351.062202832
351.013742269
351.067802644
343.694033919
344.089131552
344.146935937
351.02374282
351.042180778
351.076851236
385.930778808
350.420124131
350.406653146
350.275964181
350.172328409
384.74233266
350.59380311
350.631731468
350.91579017
350.385876445
350.409249888
385.566739387
349.548422966
349.581728051
350.108233165
343.989844403
344.018111491
343.538900062
350.515387169
350.480892985
384.112132867
350.933982208
350.664353953
350.692872039
350.131537548
349.605686246
349.628921798
382.154973761
350.34889725
350.299967642
350.221082389
349.750782633
349.818148633
349.655140576
349.682044648
350.192745906
384.424860205
350.421871639
350.395335884
350.46781346
350.361315907
381.831786587
351.096693084
351.057079552
351.067558312
350.728941642
350.757051044
350.975231754
382.998470507
350.490377577
350.520449592
350.49457883
350.472562773
382.520337244
349.8412261
349.859905335
350.31564125
350.606538323
350.615080638
381.151786531
343.447598201
344.086524951
344.004553526
350.983189932
350.782353818
350.813741554
350.331454972
349.876948063
349.900799067
349.931151469
350.025486159
350.41462287
381.503873523
350.600167003
350.532249564
350.451786126
350.059654621
350.075501063
344.158785018
344.152167961
343.579548929
343.685920697
344.089899043
344.147132705
344.011856686
344.043580111
343.674702443
386.566160356
351.008626189
350.702334754
350.462236249
350.301245453
350.213480803
350.157251653
350.146272697
350.146782
350.144836239
350.090980434
349.906878822
348.600750703
349.531246752
349.458526692
349.867848611
524.438124069
531.121775961
348.481453608
526.433855286
345.244917815
345.302078491
345.232403451
345.143934827
526.29177502
348.51224858
347.229790449
347.192992715
527.418026318
345.050900385
344.907840774
345.864923304
345.631150576
529.896166015
345.295682099
345.07416546
527.534603737
345.21109564
343.340955453
343.730157991
528.428378175
345.655281615
345.477081115
525.632746954
410.331945394
409.801174024
415.465031088
415.026809926
531.071074589
411.975222779
411.969151811
526.930899018
526.486191576
412.019536867
411.963399213
411.265943829
410.827568645
526.834263363
345.694482672
365.128816228
365.219380636
530.741744448
414.360976536
413.592475609
527.418355459
411.93591868
411.693764932
412.886639122
412.317026983
527.180990979
343.808933826
343.392748828
345.142549627
345.652137532
363.964503069
364.2902839
363.532350906
363.680136031
345.624938634
364.551617207
364.863237299
345.633976351
347.32058716
347.252843645
348.533000627
343.586338887
343.515352292
345.32955542
345.02712418
363.254080868
363.365202154
362.798779115
363.068970994
344.98312303
345.316471944
343.56093205
343.804817813
363.398570517
363.41122658
345.123615819
345.202947449
363.425364936
363.450966716
351.033473689