/*--------------------------------*- C++ -*----------------------------------*\
  =========                 |
  \\      /  F ield         | OpenFOAM: The Open Source CFD Toolbox
   \\    /   O peration     | Website:  https://openfoam.org
    \\  /    A nd           | Version:  8
     \\/     M anipulation  |
\*---------------------------------------------------------------------------*/
FoamFile
{
    version     2.0;
    format      ascii;
    class       volVectorField;
    location    "1e-05";
    object      U;
}
// * * * * * * * * * * * * * * * * * * * * * * * * * * * * * * * * * * * * * //

dimensions      [0 1 -1 0 0 0 0];

internalField   nonuniform List<vector> 
49758
(
(2132.99999933 -6.73818549751e-07 0)
(2132.9999974 -1.89003555821e-06 0)
(2132.99998969 -7.91109167347e-06 0)
(2132.99995789 -3.25251898297e-05 0)
(2132.99982696 -0.000133865353836 0)
(2132.99928734 -0.000551878566105 0)
(2132.99706253 -0.00227887920165 0)
(2132.9879072 -0.00939240007939 0)
(2132.95017124 -0.0389034726246 0)
(2132.79625958 -0.162542991867 0)
(2132.1981524 -0.691939294255 0)
(2132.58874998 -0.147924477073 0)
(2132.12647189 -0.209305134086 0)
(2131.21502569 -1.34897388627 0)
(2085.95326575 -46.5275192422 0)
(2127.57518025 -4.45646727473 0)
(1814.5935323 -14.2688192321 0)
(2002.46702383 315.872872304 0)
(2064.99982379 -69.9519797409 0)
(2129.70474011 -2.3676219185 0)
(2060.18299063 -64.7891624963 0)
(2123.1029521 -8.7253698835 0)
(2112.33205923 -17.8860457985 0)
(2125.60812488 -5.36131743867 0)
(2118.98349484 -11.2558007233 0)
(2019.0598692 309.751521897 0)
(2027.56313837 -105.719686781 0)
(2131.83027937 -0.0798741797945 0)
(2116.27652452 -23.1474589555 0)
(2031.51018914 -102.373041682 0)
(2013.71798802 303.241294782 0)
(2111.73068438 -18.461036432 0)
(2034.79969011 -90.6456619566 0)
(2099.62512888 -37.8213918872 0)
(2003.97347918 234.717603575 0)
(1996.68182759 -126.535230414 0)
(2125.83410341 -5.36016133304 0)
(2106.5535046 -2.77868623535 0)
(2105.44312844 -11.0323956002 0)
(2010.1253116 318.37470598 0)
(2067.38704157 -59.0917712597 0)
(2052.94429575 -76.7826255596 0)
(2062.90497792 -74.4185907738 0)
(2098.16566997 -32.645511829 0)
(2117.58015752 -11.3120794575 0)
(2103.03020621 -23.5876659072 0)
(2082.00359674 -60.6207749672 0)
(2003.20505322 -126.276045199 0)
(2016.41702019 278.625759934 0)
(2058.75958937 -67.5699159267 0)
(2006.98656273 -126.744365752 0)
(2051.33709228 -87.1583019752 0)
(2131.27331843 -1.28742123138 0)
(2016.99174961 -106.222632931 0)
(2114.39004114 -15.7326349313 0)
(2102.56465459 -39.0968300407 0)
(2112.58129059 -23.9269364595 0)
(2116.3530243 -11.6335455415 0)
(2073.78054783 -64.8011707289 0)
(2102.03013599 -38.2920237431 0)
(2076.63376293 -65.7821744993 0)
(2010.06480603 312.023015214 0)
(2102.35045228 -12.363174121 0)
(2092.12169707 -43.4523928621 0)
(2096.53943528 -31.7808189599 0)
(2066.89373302 -62.1383119096 0)
(2094.48806112 -36.8798614249 0)
(2059.57908856 -76.9213852516 0)
(2050.0577254 -86.4005039515 0)
(2065.36221097 -65.6625227035 0)
(2076.5305464 -62.5640311673 0)
(2051.65222841 -84.442892787 0)
(2073.5910767 -64.7694482734 0)
(1911.87486849 78.5183635277 0)
(1940.36974055 -161.548242658 0)
(2004.39101892 -79.4066610464 0)
(2055.11602613 51.9899954403 0)
(2056.86739086 50.0031220976 0)
(2005.44296133 319.120988006 0)
(2054.53020594 35.3895574417 0)
(2044.04079129 19.1830603151 0)
(2022.06783089 310.92100838 0)
(2033.36304318 -91.2633389902 0)
(2023.48102674 -101.441732799 0)
(2025.96070232 -103.501693683 0)
(2039.01308006 -94.9673793408 0)
(2055.08271366 -81.6751390362 0)
(2039.58789403 -95.9585662729 0)
(2013.27652249 302.208018213 0)
(2053.96961181 38.4649949901 0)
(2055.65996199 38.8421812749 0)
(2036.20026417 -93.5503991007 0)
(2039.53917018 -96.6748515174 0)
(2042.72623385 -85.6826156294 0)
(1983.20908471 -111.771789525 0)
(1951.96004894 -146.976428637 0)
(1957.17293706 163.238292089 0)
(2023.84735534 -100.94352528 0)
(1977.12190833 -155.090760689 0)
(1983.77456183 -147.580985779 0)
(2101.86002927 -22.1448499236 0)
(2015.97529721 -101.048056165 0)
(2082.47355437 -42.6382510103 0)
(2110.10155031 -7.32196578373 0)
(2093.31878317 -0.912495266228 0)
(2089.89795204 5.12509913242 0)
(2088.96254132 -3.95372693346 0)
(2091.70056103 -3.28636657535 0)
(2107.90847264 -8.21512888816 0)
(2005.81027405 319.758452309 0)
(2056.0076341 48.8345453102 0)
(2055.4382087 48.0759632547 0)
(2053.56885669 -78.53704479 0)
(2054.01565534 -78.4008487968 0)
(2057.27316411 -73.8894907553 0)
(2051.8282365 -92.1266758451 0)
(2053.21541419 -75.437255341 0)
(2077.40990715 -53.658551858 0)
(2006.33956255 -125.671248133 0)
(2033.49291 -98.2501441235 0)
(2024.20402033 -115.358135956 0)
(2018.07502237 300.4160697 0)
(2033.9487155 -15.1897013151 0)
(2018.18547775 -63.9641156546 0)
(2013.31616637 -123.799889882 0)
(2016.9558354 -115.768577639 0)
(2028.98346883 -100.358553901 0)
(2031.88867839 -105.854536664 0)
(2021.18264295 -113.4805345 0)
(2027.69768593 -111.574803772 0)
(2114.92605141 -15.3817668466 0)
(2126.84417638 -4.93882894652 0)
(2132.57605069 -0.0746626386208 0)
(2065.52963797 -61.2115100675 0)
(2106.19544927 -18.1173972422 0)
(2071.70886771 -54.1396508873 0)
(2052.12288019 44.0120051275 0)
(2052.54869263 41.1727947575 0)
(2013.21470215 307.971357455 0)
(2102.32625286 -19.7776182241 0)
(2083.9765024 -10.1532666953 0)
(2086.14153622 -5.24550305466 0)
(2086.18241984 -34.6257597376 0)
(2083.97351757 -19.9204603565 0)
(2102.09536491 -23.8462821852 0)
(2048.17798264 -87.1403802433 0)
(2042.27483963 -93.3488502252 0)
(2046.72640237 -87.4332124701 0)
(2052.5395192 -78.6170411638 0)
(2046.2007997 -83.6276849251 0)
(2047.21057547 -84.7997550051 0)
(2054.46546971 -80.1080636925 0)
(2063.62602464 -72.034889737 0)
(2055.49440848 -80.4632246985 0)
(2132.99984724 -0.000188866759623 0)
(2132.99953508 -0.000355260077459 0)
(2132.99855075 -0.00120852067055 0)
(2132.99532037 -0.00394712575772 0)
(2132.98480102 -0.0128574041896 0)
(2132.9507679 -0.0417016323192 0)
(2132.84107986 -0.134717695719 0)
(2132.48883376 -0.434398346855 0)
(2131.37453633 -1.38272762923 0)
(2127.87240027 -4.31391368398 0)
(2116.6842323 -13.8684647515 0)
(2103.67831981 -23.6974408955 0)
(2086.28864439 -62.6308483788 0)
(2094.85116797 -42.7245658181 0)
(2108.36470151 -34.0069738733 0)
(2105.53839109 -28.5049704403 0)
(2001.76031786 315.220121757 0)
(1968.39474738 272.569240048 0)
(2127.60600639 -3.30952491573 0)
(2108.13842058 -28.0388973682 0)
(2123.05304547 -11.8147206446 0)
(2109.0660108 -39.3652958023 0)
(1980.76621022 297.28915045 0)
(2130.1230857 2.88388311087 0)
(2122.67873511 -14.2827935561 0)
(2127.67402129 3.94174041801 0)
(2129.7870385 2.95395802653 0)
(1980.31218414 296.021490551 0)
(2123.89079937 -21.2514713816 0)
(2129.92439734 -6.43872355553 0)
(2129.63338373 -1.1315609681 0)
(1991.09685419 307.132371958 0)
(2108.22211471 4.64629478068 0)
(2107.23836606 -0.581179549854 0)
(2100.61267353 5.3419797728 0)
(2102.32732411 5.9720263316 0)
(1970.60014998 283.269966607 0)
(2104.33633901 6.33746953575 0)
(2108.06628528 5.47182844368 0)
(1987.97390882 304.843833346 0)
(2129.55227245 -0.932515220836 0)
(2121.05309938 2.76613524478 0)
(2119.48528424 4.98968352269 0)
(2121.28119609 -5.96729962738 0)
(2120.90923217 -0.3075761345 0)
(2128.95491752 -3.48982800589 0)
(2128.74534624 3.27662458308 0)
(2118.44816033 3.86640035582 0)
(2117.79042339 3.40127813242 0)
(2119.77268005 4.67624068687 0)
(2119.13351211 4.55332271299 0)
(2129.17624913 3.74603593194 0)
(1972.84898887 286.154170517 0)
(2103.48403735 6.1496082213 0)
(2104.12356636 5.57177379677 0)
(1996.52285005 312.765603413 0)
(2051.51881228 55.1747505291 0)
(2053.82472018 54.935462875 0)
(2024.73766806 74.1176179182 0)
(2025.41120394 72.3103702407 0)
(1967.75248955 274.557208781 0)
(2037.1136019 62.3523713114 0)
(2039.40092446 59.1195161297 0)
(1981.52473885 298.594059156 0)
(1977.45659306 291.886614546 0)
(2034.87654686 66.3473796007 0)
(2036.442628 65.0527849103 0)
(2048.05075435 58.1122365435 0)
(2050.63268522 56.562018752 0)
(1993.78347556 309.45299676 0)
(2108.63421919 2.39585078132 0)
(2089.59696791 8.26463287034 0)
(2088.51986182 9.20571941985 0)
(2089.19574026 7.6618453658 0)
(2089.17167398 7.63142228892 0)
(2107.29548125 1.17207864989 0)
(2101.08888166 5.69466120975 0)
(2073.5865985 13.3755881647 0)
(2072.56675444 13.4650987548 0)
(2075.67647431 12.2414228767 0)
(2074.34387698 12.5333637954 0)
(2101.50171042 5.8856175555 0)
(1967.9996208 278.090075217 0)
(2026.37601601 69.9482074048 0)
(2028.05073006 69.9684516407 0)
(2105.18324922 6.52973035805 0)
(2083.3123426 8.61574322418 0)
(2081.52443106 9.55602156642 0)
(2087.03484288 8.92738179349 0)
(2085.13719879 8.05730208745 0)
(2106.45179721 6.13184122163 0)
(1984.09836411 302.813635993 0)
(2041.47888451 58.3161745261 0)
(2044.90702358 59.1276872728 0)
(2030.48286561 70.133540793 0)
(2032.72267081 68.6409298386 0)
(1974.17145556 288.133938043 0)
(2104.33635953 5.45294730015 0)
(2078.74885896 11.8722380589 0)
(2077.47377976 12.464601404 0)
(2079.93624715 10.0797602497 0)
(2079.59932989 10.8443545852 0)
(2104.68823355 5.38522747304 0)
(2132.99808463 -0.00234196803962 0)
(2132.99510981 -0.00380603356458 0)
(2132.9860524 -0.0120492214127 0)
(2132.95929087 -0.0356403177681 0)
(2132.88198103 -0.104001751842 0)
(2132.66247749 -0.299170447557 0)
(2132.05537235 -0.842904344102 0)
(2130.42846841 -2.29596638186 0)
(2126.11243373 -6.04814568846 0)
(2118.6374366 -13.2757529833 0)
(2115.33682048 -19.3264849227 0)
(2112.72237244 -26.0954358733 0)
(2131.2410952 -8.64159102088 0)
(2130.91450581 -0.415649515535 0)
(2132.16768872 3.85674750278 0)
(2125.29710137 -17.2700897966 0)
(2132.63907626 -2.53598192239 0)
(2121.86657363 -18.2097163142 0)
(2134.63244049 0.29176767054 0)
(2133.14566884 1.70827277574 0)
(2132.88823728 -0.318642892242 0)
(1967.85232404 268.928915196 0)
(1957.71355871 171.177197324 0)
(2132.89665064 3.92274613742 0)
(1958.28800501 165.475119116 0)
(1954.92284827 84.4206886935 0)
(2129.69758132 2.41535910872 0)
(2129.87373087 2.42893316887 0)
(2129.9447187 3.51201984306 0)
(2133.80960643 1.32007580993 0)
(2127.83549128 3.84879279369 0)
(2126.35580605 2.76806668343 0)
(2131.23893801 3.47572980306 0)
(1960.78479202 229.196155103 0)
(2124.78345489 4.69690930009 0)
(2126.57014951 4.50176128969 0)
(2120.94481274 3.117633245 0)
(2123.98334027 4.64039255978 0)
(1960.55554125 222.649425865 0)
(2133.69510642 2.52202551596 0)
(2129.86409799 4.13957384224 0)
(2129.05641071 4.30822386766 0)
(1956.13735047 117.548497219 0)
(2116.2085858 1.31906644309 0)
(2119.62849169 2.78461196028 0)
(2113.94202061 1.81645584854 0)
(2115.49693929 1.35044381538 0)
(1955.37057902 110.532473708 0)
(2130.13946588 3.11392694782 0)
(2125.30418336 2.26082402824 0)
(2124.45197604 1.90147275756 0)
(1963.88287544 256.593640444 0)
(2097.205903 6.88957675285 0)
(2100.04235155 5.24513437835 0)
(2084.35842984 3.75119945892 0)
(2087.43826073 4.83862540106 0)
(1959.01116156 194.092557045 0)
(1956.82009521 145.833071319 0)
(2079.90915454 3.7854674668 0)
(2083.17649481 3.77731682679 0)
(2067.57285207 2.07056054808 0)
(2071.81274776 3.89182613607 0)
(1955.63320106 92.3674485158 0)
(2093.8010994 6.26202961538 0)
(2095.89264658 6.9739355023 0)
(1963.7506464 252.539118679 0)
(2125.07735243 4.55326670385 0)
(2113.00608789 3.55436696724 0)
(2112.16507096 3.49156576955 0)
(2116.39192437 3.46282808343 0)
(2114.68133393 3.69540907384 0)
(2125.77764422 4.77062333892 0)
(2122.04802311 3.83390281806 0)
(2107.12557613 2.52807406715 0)
(2105.18886888 1.65134426372 0)
(2110.74013015 3.57912425974 0)
(2109.02303271 3.15584385747 0)
(2123.16279095 4.20815459637 0)
(1958.19183385 198.726630788 0)
(2088.84774204 5.14659661498 0)
(2092.8681758 6.29012308387 0)
(2076.6657069 3.38298306546 0)
(2078.92442674 3.56112549636 0)
(1955.65047377 137.998414634 0)
(2117.42553364 1.66548095549 0)
(2100.23176599 1.91399757619 0)
(2098.82722023 2.45317268554 0)
(2103.24651774 1.42172954182 0)
(2101.49675958 1.68667272666 0)
(2118.4154421 2.00639445675 0)
(2114.2629189 1.72756743369 0)
(2089.69114693 2.38026734155 0)
(2087.33990311 1.31205536323 0)
(2097.57686294 3.53144579314 0)
(2091.02168206 2.60106680605 0)
(2114.42076432 1.79537013755 0)
(1953.81331129 93.8985299334 0)
(2073.27331025 3.92196074121 0)
(2075.84805745 3.81778909303 0)
(1966.02701917 264.320381797 0)
(2022.89603169 75.2429829624 0)
(2023.68312428 74.2572346464 0)
(2005.39649683 107.254836139 0)
(2005.41382152 103.301108805 0)
(1957.11986203 177.238703438 0)
(1956.6870458 157.132604709 0)
(2003.76521302 111.697069022 0)
(2005.00584498 110.051875855 0)
(1998.98287713 131.834280966 0)
(1999.10797278 131.810366475 0)
(1954.90281511 85.779606232 0)
(2013.9688706 87.7071446825 0)
(2014.70729799 85.5794264909 0)
(1961.65638312 237.416909496 0)
(1960.20069039 215.386916874 0)
(2011.43432051 93.3855143387 0)
(2012.8683178 90.8277945178 0)
(2000.75314663 125.339964177 0)
(2000.89168432 124.390637858 0)
(1956.10705142 125.382183226 0)
(1955.81344929 106.609982262 0)
(2001.2268886 131.441464804 0)
(2000.62694383 128.074656456 0)
(2020.40839863 78.7623535236 0)
(2021.74387678 76.4927589976 0)
(1964.49531102 259.347388059 0)
(2098.63828747 6.1798420285 0)
(2070.45456783 14.1708950869 0)
(2068.96554305 15.6305704105 0)
(2071.70281214 13.1198537777 0)
(2071.20573132 13.4766441496 0)
(2099.55087801 5.49211100801 0)
(2085.09298554 3.61532709979 0)
(2054.33129649 19.1615735114 0)
(2053.72063685 20.0306158803 0)
(2056.85848627 19.1525431076 0)
(2055.01155981 19.0761589449 0)
(2086.17359602 4.01418055648 0)
(1958.57599075 187.416507788 0)
(2006.16124465 102.168836203 0)
(2007.83391809 100.706571713 0)
(2002.35234804 116.837184033 0)
(2003.16904466 114.962812397 0)
(1956.88646793 151.519275706 0)
(2080.88195695 4.21030998462 0)
(2050.4874856 23.062472606 0)
(2049.20654262 23.2315102037 0)
(2052.81042169 21.2383483754 0)
(2051.53940038 21.9416251502 0)
(2082.20812247 3.94345820125 0)
(2068.73377546 2.44622031754 0)
(2039.67369332 26.5380092629 0)
(2038.73069127 26.8883325801 0)
(2042.71049567 28.9394900384 0)
(2040.91216301 28.2348423852 0)
(2070.13324611 3.30139095763 0)
(1955.74842522 88.6700932771 0)
(2000.29016268 133.952023908 0)
(2001.48864704 134.24907805 0)
(2094.20717198 6.3684513857 0)
(2064.60901759 17.1873404392 0)
(2064.06878726 17.4314151753 0)
(2067.52116143 17.2343314724 0)
(2065.87898002 17.3682215314 0)
(2094.92551975 6.7308851606 0)
(1962.70308115 245.815506045 0)
(2016.71067221 84.4431297387 0)
(2018.86556258 82.1399524871 0)
(2008.65460582 96.457228244 0)
(2009.62462213 94.1604651991 0)
(1959.0669866 207.097542929 0)
(2090.17950216 5.59137524933 0)
(2059.64308491 17.9939961966 0)
(2058.32242018 18.2451724424 0)
(2062.97895176 18.2954994036 0)
(2061.36219653 18.3090147287 0)
(2091.73532439 6.09589404083 0)
(2077.32936193 3.49270763542 0)
(2046.76190672 24.8555724635 0)
(2046.16773525 25.15915989 0)
(2048.20388754 23.3463385481 0)
(2047.52113769 24.1067228373 0)
(2078.23998713 3.70501422902 0)
(1955.53815504 131.460206842 0)
(2000.97460346 121.526590062 0)
(2001.24672107 118.068663883 0)
(2000.8483916 132.405218073 0)
(2001.04476369 131.990042475 0)
(1953.71207634 99.7059046574 0)
(2074.41066539 3.79469305907 0)
(2043.97899074 27.2711874843 0)
(2043.41642626 28.0346891156 0)
(2045.6424783 26.0175174679 0)
(2044.89266971 27.1561968899 0)
(2074.95522575 3.7942451159 0)
(2102.7024732 3.60960770466 0)
(2102.8862421 3.81218917648 0)
(2088.02989987 1.61333263355 0)
(2088.61922975 1.81138225346 0)
(2102.91509466 3.82864057307 0)
(2102.7570802 4.04160520673 0)
(2102.10000551 4.12769062696 0)
(2101.23993442 3.84311149347 0)
(2092.9924455 2.71600786961 0)
(2132.98696366 -0.0157547447792 0)
(2132.97193708 -0.0220987875336 0)
(2132.92659381 -0.0657045872845 0)
(2132.8060267 -0.175819680395 0)
(2132.49466706 -0.463251543902 0)
(2131.7236341 -1.18058820757 0)
(2129.87866939 -2.91116144093 0)
(2125.99370637 -6.92546388769 0)
(2125.69908642 -6.85129484329 0)
(2122.88242728 -10.3689982786 0)
(2121.15157462 -11.4695997866 0)
(2121.7516401 -11.6405670421 0)
(2119.91095118 -13.7248524935 0)
(2123.02449158 -11.8511821545 0)
(2121.98004179 -14.9212861486 0)
(2130.73131706 -6.02428854711 0)
(2134.05357759 0.681419676545 0)
(2129.19328893 2.34260208082 0)
(2132.31632248 1.78177440823 0)
(2131.08599719 1.34225927958 0)
(2132.8210327 0.950918768981 0)
(1954.89598602 85.2037677421 0)
(1958.79177919 78.2859909812 0)
(2126.79590971 0.0268781032701 0)
(2123.53665146 1.3022096914 0)
(2122.24637458 0.129228217704 0)
(2128.63755516 1.75931733738 0)
(1956.67267309 84.133768352 0)
(2110.46272352 -1.43535732919 0)
(2113.49034999 1.43353219449 0)
(2109.20923397 -2.07680592774 0)
(2110.06155714 -2.37100467767 0)
(1956.92277462 83.0888934175 0)
(2127.58881584 1.03886193942 0)
(2120.71877841 -1.44324001422 0)
(2119.73505947 -2.0509349704 0)
(1956.29874157 84.4115046814 0)
(2062.60477534 -0.755230780434 0)
(2066.0669304 1.63206717661 0)
(2060.67312015 4.54736020561 0)
(2060.99644005 1.66861980677 0)
(1957.80560335 80.8452901631 0)
(2060.69273196 0.103551065276 0)
(2062.27723359 -0.597662846381 0)
(1956.61324306 86.072792759 0)
(2111.67043623 -0.00441803546739 0)
(2083.58579914 -2.12370594256 0)
(2082.08028811 -1.70066305836 0)
(2086.4895539 0.75964009621 0)
(2084.01429517 -1.97838696699 0)
(2112.80597771 0.781790071631 0)
(2109.09656899 -2.36469278643 0)
(2082.38220142 -1.13866354697 0)
(2082.94280993 -0.396632404603 0)
(2082.14613156 -1.7146538897 0)
(2082.40133192 -0.994961961261 0)
(2109.24535451 -2.54420666747 0)
(1958.0778644 82.4922221313 0)
(2061.03418237 1.41085520835 0)
(2060.61089096 0.110021001627 0)
(1955.29289239 84.7507111341 0)
(1998.15500826 133.497497236 0)
(1998.63485454 133.513893942 0)
(1993.42736907 131.225642343 0)
(1993.05557396 130.502567671 0)
(1958.1194643 78.8431669856 0)
(1995.20311144 133.463327763 0)
(1996.01175201 134.412739365 0)
(1956.89219829 86.2035713013 0)
(1957.29713543 83.0158195462 0)
(1994.22428557 132.578690676 0)
(1994.55140667 133.240613826 0)
(1997.27534591 133.679071259 0)
(1997.26852887 133.570526903 0)
(1955.82032685 83.7614549952 0)
(2063.16729981 -0.402133972619 0)
(2034.34688277 26.3321000481 0)
(2034.25236909 27.1944137679 0)
(2037.34314536 27.5778884148 0)
(2035.81798728 27.0319874878 0)
(2064.40710506 0.681857583414 0)
(2061.20947451 3.18669598644 0)
(2029.29432819 39.0081059653 0)
(2029.12640646 40.2154499305 0)
(2029.40626596 37.1278451538 0)
(2029.46616053 37.543497174 0)
(2061.18753953 2.21865787928 0)
(1957.80672542 79.7178616844 0)
(1992.97343553 130.527630595 0)
(1993.41035371 132.068673938 0)
(2061.12929157 -0.0712105217242 0)
(2032.10478529 31.5313163011 0)
(2031.29105035 32.2185979355 0)
(2033.76954283 28.6956727584 0)
(2032.99921061 30.4310552324 0)
(2061.59137587 -0.293285589414 0)
(1956.98164215 87.0575019177 0)
(1996.76675164 134.60077698 0)
(1997.1035287 134.17817576 0)
(1994.03750912 132.572467119 0)
(1993.95503605 133.003669794 0)
(1957.75049193 83.2813045911 0)
(2060.88326496 1.10813986893 0)
(2029.85123106 35.8009742629 0)
(2029.77267623 37.1780894745 0)
(2030.72477589 32.7251825433 0)
(2030.36079734 33.9649469774 0)
(2060.75199377 0.505387889829 0)
(2097.02621502 0.654104663695 0)
(2097.38258127 0.225929746429 0)
(2082.51530079 -1.18115200755 0)
(2082.70994742 -1.03428951143 0)
(2097.02610304 0.843345505128 0)
(2096.94121515 0.635515521473 0)
(2097.41552859 1.15377198447 0)
(2097.31240518 0.896322516031 0)
(2082.92901085 -0.733952157737 0)
(2082.50092654 -1.48047898811 0)
(2097.84682742 -0.193084453259 0)
(2097.87128405 -0.526631721279 0)
(2097.75014099 -0.605863780744 0)
(2098.28027096 -0.586981481133 0)
(2082.57248463 -1.91982823938 0)
(2083.02291723 -2.03374235691 0)
(2099.07030537 -0.463516931724 0)
(2099.56793171 0.155823225525 0)
(2100.23985725 0.620575914352 0)
(2100.92158791 1.83817720382 0)
(2084.6396288 -1.15341811056 0)
(2085.37447266 -0.232693529072 0)
(2101.5723625 2.52638279721 0)
(2102.22322407 3.24475960254 0)
(2132.93819793 -0.0743327190953 0)
(2132.88791731 -0.0883736423874 0)
(2132.64563533 -0.277468640519 0)
(2132.72778989 -0.251939875879 0)
(2132.21185045 -0.758927940306 0)
(2132.34002298 -0.617363278009 0)
(2131.27187167 -1.66792119367 0)
(2131.45188952 -1.46666043022 0)
(2129.32864295 -3.59062975016 0)
(2129.49529511 -3.35841371822 0)
(2126.33835114 -6.67191417159 0)
(2124.04825952 -9.32804205916 0)
(2123.19826337 -10.3589551573 0)
(2123.76564352 -10.4834244774 0)
(2128.40567903 -6.99011883895 0)
(2132.48406688 -2.28896896882 0)
(2132.12431726 0.564016125439 0)
(2125.60249482 -0.762249567613 0)
(2129.57930213 0.128170177271 0)
(2129.17437948 -0.878067268367 0)
(2131.39161424 0.0317810083487 0)
(1959.18831412 77.1832634681 0)
(1963.09459779 64.9078833537 0)
(2125.00636496 -0.278707529001 0)
(2119.01710569 -1.60410173625 0)
(2118.60335921 -0.933798995591 0)
(2125.15931688 -0.856512582496 0)
(1960.38761488 70.3828474704 0)
(2108.10032574 -0.813745553255 0)
(2108.97052712 -1.53510562053 0)
(2106.502798 -1.00579888941 0)
(2107.62671256 -0.910999615381 0)
(1960.31655454 69.5965221151 0)
(2125.23484209 -0.609118757059 0)
(2118.28349161 -1.00465743436 0)
(2117.8867439 -0.978033929091 0)
(1959.05784774 73.1475159989 0)
(2059.33520164 5.0721271441 0)
(2060.26898557 4.79513428026 0)
(2056.96287375 9.78970207459 0)
(2057.12486578 8.05931482107 0)
(1961.64650393 66.9094231659 0)
(2058.39415502 5.80744177072 0)
(2059.03862189 5.44846027223 0)
(1959.65652694 72.9008544971 0)
(2108.56607767 -0.927835031642 0)
(2082.22721939 -0.509373236645 0)
(2081.41414548 -0.844941959285 0)
(2082.71155906 -0.263600614946 0)
(2082.46263566 -0.475025802682 0)
(2108.92621155 -1.17104358486 0)
(2106.71632547 -1.04806116053 0)
(2080.56216095 -0.424718435611 0)
(2080.32015576 0.0539857177052 0)
(2081.25726812 -0.842721260168 0)
(2080.63387838 -0.399649704623 0)
(2107.21280005 -0.962556049462 0)
(1961.16109196 67.5949557926 0)
(2057.25522259 7.98839123153 0)
(2058.22222932 6.1829616364 0)
(1958.63660069 74.9560785815 0)
(1992.15028267 129.63604129 0)
(1993.00216907 130.897227725 0)
(1992.36688222 117.796597153 0)
(1992.30690393 118.711512052 0)
(1962.9202215 66.0950942176 0)
(1991.72132138 124.453768566 0)
(1991.80930373 125.690299608 0)
(1960.40442353 70.8727960486 0)
(1960.47206739 68.7830740137 0)
(1991.29871901 122.924671751 0)
(1991.48238532 123.519339073 0)
(1992.00004677 128.579942673 0)
(1991.99972487 128.943369173 0)
(1958.62745812 73.4918678133 0)
(2059.65378239 4.58566175313 0)
(2027.67645812 40.958753447 0)
(2027.46223741 42.1965658895 0)
(2028.5233335 40.5020621853 0)
(2027.84252986 40.3892164173 0)
(2059.82343094 4.5924492532 0)
(2057.26114604 9.14229055932 0)
(2025.8202007 52.9630506234 0)
(2025.71332556 53.9772097273 0)
(2025.36102887 50.76180301 0)
(2025.57030266 51.6458010363 0)
(2057.19988182 8.41786881159 0)
(1962.19241462 66.3680937196 0)
(1991.87378714 119.529272044 0)
(1991.36806901 120.455817235 0)
(2058.53007554 5.48296641364 0)
(2026.73327726 44.5749080322 0)
(2026.62753336 45.5758342261 0)
(2027.23272509 43.4454079426 0)
(2026.86894182 44.0465126307 0)
(2058.64484032 5.45491418767 0)
(1960.10543315 71.8280645204 0)
(1991.91194811 127.129957477 0)
(1992.09621178 128.189927083 0)
(1991.29910083 121.498488355 0)
(1991.29804071 122.325551008 0)
(1960.79101684 68.1197475407 0)
(2057.48218246 7.61046192357 0)
(2025.6487941 49.0837721566 0)
(2025.49263378 50.1234444297 0)
(2026.27867346 46.7015576157 0)
(2025.88406514 47.8235159841 0)
(2057.83356866 6.75132281679 0)
(2082.62161346 -0.368918573985 0)
(2097.12072874 1.33795358782 0)
(2097.18771463 1.28473274315 0)
(2097.08347515 1.2081678337 0)
(2097.14019145 1.2399660225 0)
(2082.5719269 -0.44476922149 0)
(2081.88615932 -0.639285322528 0)
(2096.58589238 1.16891815846 0)
(2096.86551219 1.25298813387 0)
(2095.95435764 1.01270587021 0)
(2096.18940232 1.14171499412 0)
(2081.61265174 -0.749204414016 0)
(2081.02433559 -0.729931636696 0)
(2095.61823307 1.07983448812 0)
(2095.74767967 1.00162599239 0)
(2095.29339871 1.2410671455 0)
(2095.47474617 1.1849922979 0)
(2080.84612689 -0.440576402419 0)
(2080.52902598 -0.375041999187 0)
(2095.08881451 1.37824708129 0)
(2095.15425824 1.25710008831 0)
(2094.8878322 1.70196494232 0)
(2095.02337946 1.47136837061 0)
(2080.4897215 -0.180592465283 0)
(2132.7653933 -0.278594594487 0)
(2132.2527178 -0.825825616484 0)
(2132.09577549 -0.690872546853 0)
(2131.15805487 -1.86504811533 0)
(2129.21499778 -3.76986751269 0)
(2126.59422714 -6.55068667304 0)
(2124.7453724 -8.73041459967 0)
(2124.22734645 -9.43274240926 0)
(2124.43928503 -9.61985024188 0)
(2127.08747698 -7.50266642413 0)
(2131.23456273 -3.33623597528 0)
(2131.92200019 -1.75408667205 0)
(2130.49346301 -0.531577540362 0)
(2124.71691448 0.0154101058961 0)
(2128.52723385 -0.954507452166 0)
(2128.2959523 -0.809110838418 0)
(2130.45186162 -0.807851542883 0)
(1962.52134292 62.6295902798 0)
(1966.68901078 50.6292321656 0)
(2123.95516451 1.13192947704 0)
(2117.65357019 -0.767250177292 0)
(2117.30647248 -0.351289286035 0)
(2124.43636067 0.386405930534 0)
(1964.80410551 55.7517466937 0)
(2106.2067524 -0.474062573461 0)
(2106.44742677 -0.90806382282 0)
(2104.9394546 -0.659202587892 0)
(2105.84211547 -0.473034144613 0)
(1964.45638673 54.1856321348 0)
(2124.28541367 0.795488816204 0)
(2116.97251656 -0.298257552643 0)
(2116.52865334 -0.420131780804 0)
(1963.24459356 58.5267948622 0)
(2056.13306779 10.3234691375 0)
(2056.63757698 10.2682670377 0)
(2054.50531699 14.7731022414 0)
(2054.66551018 13.2431692577 0)
(1965.77887307 51.5482647314 0)
(2055.76670934 11.7453350632 0)
(2056.12893238 10.7831429411 0)
(1963.87484555 58.1688232165 0)
(2106.55486088 -0.583334529387 0)
(2080.12791738 -0.363224978316 0)
(2079.50826599 -0.325318139279 0)
(2080.0433234 0.128704768554 0)
(2080.02850637 -0.431172323707 0)
(2106.67293518 -0.761593989524 0)
(2105.23469428 -0.59617101156 0)
(2078.42810435 -0.245770233662 0)
(2077.98134133 -0.023255781074 0)
(2079.26743568 -0.507166832931 0)
(2078.55700793 -0.240346170242 0)
(2105.44923088 -0.506440816628 0)
(1964.9790943 51.6144449073 0)
(2054.80722043 13.0545840116 0)
(2055.45760025 11.7611289825 0)
(1962.46206852 60.7198282586 0)
(1991.70463251 114.65012204 0)
(1991.93964742 116.411924913 0)
(1994.14749045 93.4328323824 0)
(1994.30974729 95.2175463339 0)
(1966.78957423 50.739127729 0)
(1993.30008895 106.574742528 0)
(1993.59848459 108.398392785 0)
(1965.06333216 56.9704239079 0)
(1964.42033508 52.8959000785 0)
(1992.61501345 103.100986055 0)
(1992.87371317 104.756123508 0)
(1991.91955973 111.324489337 0)
(1991.66428436 112.831471508 0)
(1962.71584003 59.3592064939 0)
(2056.21907741 10.3198522336 0)
(2024.67774343 56.2096628705 0)
(2024.55929294 56.7616295102 0)
(2025.36223481 54.9431228319 0)
(2024.96749002 55.7482343761 0)
(2056.43577252 10.3763898962 0)
(2054.85266999 14.0884731504 0)
(2024.95242923 66.8952659701 0)
(2024.60233292 68.661799595 0)
(2024.26362007 64.8375610918 0)
(2024.80344529 65.5386123149 0)
(2054.84781709 13.496159879 0)
(1966.58293403 50.9758037533 0)
(1994.31411189 96.8428785356 0)
(1993.47113444 98.4729878746 0)
(2056.05573865 11.5751256199 0)
(2025.45826162 59.8378094818 0)
(2025.11213646 60.7945102709 0)
(2024.6705007 57.9396065422 0)
(2025.08818078 58.9810525771 0)
(2056.22157084 11.272695459 0)
(1964.60010426 57.8283606371 0)
(1993.19892308 109.706722052 0)
(1992.44595838 110.364173093 0)
(1993.02701246 100.248091491 0)
(1992.69150002 101.504353485 0)
(1964.59581692 52.0731132041 0)
(2055.00310556 12.4323486394 0)
(2024.1640599 63.0788935244 0)
(2024.1753788 64.1953939149 0)
(2024.56010658 61.4966908188 0)
(2024.25892323 62.0422401515 0)
(2055.23271213 11.8758128499 0)
(2079.93741882 -0.000787146684058 0)
(2094.63442385 1.85456416315 0)
(2094.68335376 1.8218463482 0)
(2094.84269343 1.6295676543 0)
(2094.74009291 1.75102442746 0)
(2079.93281672 -0.220098086273 0)
(2080.04457662 -0.290936289014 0)
(2094.96146188 1.63572874157 0)
(2094.97575152 1.59966653115 0)
(2094.34448507 1.65240299666 0)
(2094.62464071 1.65596945744 0)
(2079.75835054 -0.268053412616 0)
(2078.94374733 -0.545191258049 0)
(2093.75514019 1.79047299756 0)
(2094.0605538 1.67474249454 0)
(2093.41482429 1.96098338867 0)
(2093.57864748 1.9469927709 0)
(2078.7465221 -0.315857856989 0)
(2078.42535195 -0.235462297562 0)
(2093.32553759 1.93434198785 0)
(2093.32795956 1.93982505374 0)
(2092.88493943 2.06626268694 0)
(2093.12495039 2.01237165559 0)
(2078.28710087 -0.150663632082 0)
(2131.07265372 -2.1161181367 0)
(2130.9390332 -1.55560858851 0)
(2129.28555545 -3.90841958739 0)
(2126.89702324 -6.26698243431 0)
(2125.30199249 -8.03162531984 0)
(2124.92024651 -8.80083680828 0)
(2125.06417816 -8.9584484297 0)
(2126.72892228 -7.4625249104 0)
(2129.86539321 -4.29152771894 0)
(2132.20355823 -1.90338216214 0)
(2131.64245465 -1.57301308083 0)
(2130.34531706 -0.926977254318 0)
(2123.60916529 1.2560974706 0)
(2128.02143203 -0.552553992413 0)
(2127.59020063 -0.385183411599 0)
(2130.14917619 -0.894722730977 0)
(1966.38717078 50.2192204984 0)
(1969.52414767 44.6606938857 0)
(2122.32746453 1.23203711148 0)
(2116.0392875 -0.478065414031 0)
(2115.48195955 -0.411412883979 0)
(2123.21214994 1.31985685476 0)
(1968.03039114 47.1532123092 0)
(2104.69668067 -0.803502641962 0)
(2104.67974414 -0.748594596737 0)
(2103.4571684 -0.639322372084 0)
(2104.27616193 -0.562779373727 0)
(1968.0974872 46.1133716586 0)
(2122.70508607 1.2898955611 0)
(2114.94690288 -0.352709150865 0)
(2114.42031524 -0.443604621893 0)
(1966.28625272 48.6014860286 0)
(2053.3134772 15.4209251238 0)
(2054.08095708 15.1089598217 0)
(2053.50891068 19.4006094638 0)
(2052.44947868 18.2534731586 0)
(1968.71972621 45.2471360289 0)
(2053.85871343 16.1444777355 0)
(2053.07542532 15.8009156321 0)
(1967.01593563 48.9420697667 0)
(2104.74090015 -0.911809607368 0)
(2077.1249029 -0.823756724197 0)
(2077.79452396 -1.02792996099 0)
(2077.68837123 -0.0345677762757 0)
(2077.16454393 -0.675756327892 0)
(2104.62424293 -0.860611226299 0)
(2103.4152796 -0.61817265195 0)
(2076.18203443 -0.399510298105 0)
(2076.73768282 0.256706105367 0)
(2077.72842005 -0.810319855772 0)