/*--------------------------------*- C++ -*----------------------------------*\
  =========                 |
  \\      /  F ield         | OpenFOAM: The Open Source CFD Toolbox
   \\    /   O peration     | Website:  https://openfoam.org
    \\  /    A nd           | Version:  8
     \\/     M anipulation  |
\*---------------------------------------------------------------------------*/
FoamFile
{
    version     2.0;
    format      ascii;
    class       volScalarField;
    location    "2e-05";
    object      H2;
}
// * * * * * * * * * * * * * * * * * * * * * * * * * * * * * * * * * * * * * //

dimensions      [0 0 0 0 0 0 0];

internalField   nonuniform List<scalar> 
50271
(
1
1
1
1
1
1
1
1
1
1
1.00000000001
0.999999999992
1.0000000005
0.999999999095
0.999999996351
0.999999999817
0.914897945429
0.653084396441
1.00000001303
1.00000021541
1.00000136299
0.999999998853
0.999999997625
0.999999997391
0.999999998228
0.726779814306
0.999996111396
1.00000044682
0.999607724885
0.999989687344
0.719509260354
0.999999996495
1.00000144887
0.99995811011
0.804021864608
1.00168810456
0.999910625647
1.01709288688
1.01310922052
0.673918806512
0.999999985804
1.0000000218
1.00000073818
1.00000033745
1.00000025275
1.00000097542
1.0062953546
1.00236344682
0.775932039994
0.999999074384
0.99996090772
1.00031516616
0.9999939593
0.999886011142
1.00000091302
0.999747360655
1.00025416551
1.00036588992
1.00002162059
1.00006541798
0.999859931719
0.688668357956
1.01182805678
1.00769967975
0.999999999993
1.0000000027
0.999999994844
0.999983859332
1.00000033826
1.0000003072
1.00000734783
1.0000004409
0.999986661292
0.870031025431
1.01399494019
1.00927314137
0.973130003181
0.975990031301
0.657122382939
0.999022090815
1.00396484286
0.738962207538
0.99999869526
0.999968297766
0.999953947548
0.999903489873
0.999853616074
1.00000513904
0.708952617996
0.992822307696
0.996533509864
1.00000347271
1.00000161918
1.00000149138
1.01960347037
1.01729483302
0.841108304232
1.000340625
1.00893104694
1.01224102573
1.00070401198
1.00419478139
0.999989029998
1.01575610747
1.03078612649
1.03162275782
1.02878166692
1.02984148005
1.01450033265
0.667775353804
0.979164688462
0.98253969945
1.00000012111
1.0000000005
0.99999999178
1.00505325683
1.01973831442
1.02148281803
1.01391647051
1.01737568612
1.00378127862
0.762185438282
1.0116508548
1.0146234333
1.000029953
0.999880598709
0.999927515445
0.999780998984
0.99985091824
1.00014622472
0.9999566737
0.9999990702
1.00000077171
0.99995063585
0.999990117926
0.999845359689
0.984571245709
0.988453339001
0.696891426129
1.01047821846
1.0264673812
1.02758743482
1.02416998645
1.02558664021
1.00916894169
1.00000519639
1.00000256266
0.999996791849
1.00000030846
1.000000775
1.0000013733
1.0000016299
1.00000035826
1.00000091518
1
1
1
1
1
1
1
1
1
1
0.999999999353
1.00000000046
1.00000118247
1.00000029981
1.00000072546
0.999999994145
0.644552478877
0.528282569709
1.00001200013
0.999969851999
0.99994452852
1.00000519823
0.586045757021
0.998915645583
0.99945109531
0.998249859632
0.998743113365
0.578395595519
1.00000702952
0.999889541247
0.999838531538
0.618094390762
1.02209257149
1.01832120926
1.0345243614
1.03171123248
0.548847085584
1.02675246152
1.02318450554
0.610261579011
0.999095810977
1.00126471579
1.00201130281
1.00065615995
1.0010147623
0.999287204179
0.998417744864
1.00405896616
1.00464284211
1.00234660701
1.00331235163
0.998548875103
0.555823332241
1.03081821172
1.02767492912
0.635049546207
0.966935491765
0.970248070848
0.918837222669
0.923301660914
0.535564811349
0.948577462277
0.951363796658
0.593986616886
0.570568533386
0.94092535621
0.945497345391
0.961398996827
0.964374074206
0.626216427665
1.02083923595
1.03390491376
1.03436439469
1.03235232661
1.03336981687
1.01960700609
1.03357779726
1.03517378634
1.03455994178
1.03564953896
1.03544374222
1.03270073015
0.542465180259
0.927654900014
0.93169613588
1.02584029817
1.03532734253
1.0355909589
1.03461344843
1.03512168301
1.0247108991
0.602018872741
0.954972482515
0.95775182481
0.934426752251
0.937458600088
0.563089718889
1.02962061519
1.03567257312
1.03568985424
1.03564740574
1.035636954
1.02868376757
1
1
1
1
1
1
1
1
1.00000000001
0.99999999989
0.999999991147
0.999999995151
1.00000007469
1.00001422183
1.00001148666
1.00000241214
1.00000404511
0.999999997568
1.00001012468
1.0000129154
1.00000016086
0.52140986463
0.439051603613
1.00001658559
0.434439354633
0.381059172257
0.999964593797
0.999734639121
0.999657906038
1.00001892029
0.999207392973
0.999049097592
1.00000154667
0.48104842366
0.997764022645
0.998112345708
0.99779065699
0.997726199954
0.475877768966
1.00001883635
0.999446020016
0.999333872604
0.408838331699
0.998419628886
0.997865551507
0.999907681835
0.998586617833
0.404745146436
0.999985745295
0.998687204856
0.998530313122
0.503564904015
1.03774242682
1.03535853136
1.04378565144
1.04296640771
0.454380499898
0.422730877329
1.04464382812
1.04403641491
1.04306454874
1.04363718932
0.390040887581
1.04048253364
1.03852322133
0.497622698302
0.997882699629
1.00715018992
1.00806925137
1.00514216491
1.00601283697
0.997956760929
0.997751731415
1.01216551693
1.01305878139
1.00980752862
1.01097005805
0.997731863114
0.458810089927
1.04237310869
1.04079421599
1.04478145879
1.04462588706
0.418974332372
0.998164019668
1.01682719997
1.01881722141
1.01465745204
1.0160414736
0.998082127544
0.999464585824
1.02559156498
1.02969489383
1.0209244063
1.02411111939
0.999078245941
0.394649467847
1.04396863964
1.04469169474
0.515661589206
0.910555892285
0.914536384168
0.847915321301
0.853213890993
0.444639369318
0.431075011135
0.839184290261
0.843160544355
0.776365884038
0.780380568558
0.383676324846
0.885097235247
0.88922428532
0.486129793184
0.469918228513
0.876252926863
0.881004997066
0.812432789828
0.817664185216
0.413208536688
0.401839102429
0.80347887474
0.807434734996
0.90227369077
0.906527466429
0.509809400051
1.03697794012
1.0328941569
1.03240550521
1.0340904619
1.03366980057
1.03620593095
1.04361150817
1.02001278462
1.01902664257
1.02350912981
1.02141537077
1.04331258888
0.449875354072
0.858133438973
0.862449734207
0.829680668757
0.834792989232
0.427305118984
1.04462775171
1.01471268818
1.01247140926
1.0168543121
1.01566184117
1.04442165094
1.0432214279
0.992467425367
0.991006696856
0.996015148755
0.994129747505
1.0433853795
0.386434668041
0.78451782264
0.78920291551
1.0397767317
1.03000426204
1.02883441127
1.03152074917
1.03070760513
1.03914514081
0.491808479366
0.893667630566
0.898104107812
0.866729971419
0.871377725503
0.463855859419
1.0419583987
1.02580008616
1.02461063458
1.02815084889
1.02651851887
1.0414540304
1.04485235091
1.00770365245
1.00489146543
1.00970354665
1.00859597016
1.04468805859
0.416457430972
0.821715107729
0.825182327937
0.794481476544
0.799390878161
0.398823894066
1.04414235074
0.999062092908
0.997356011486
1.00272751617
1.0008976693
1.04444368318
1.01663902388
1.01673972641
1.02903366442
1.02704359581
1.01695080176
1.01715176921
1.01780933757
1.01822462124
1.02234597117
1
1
1
1
1
1
1
1
1
1
1.00000000002
1.00000000005
0.999999999518
0.999999998855
0.999999977033
0.999999942754
1.00000037017
0.99995052529
1.00001934642
1.0000267116
1.00000112258
0.377377269797
0.330142029039
0.999854668304
0.998359451866
0.998226942607
0.999915750451
0.352183996413
1.00081356891
1.00016523678
1.00161000746
1.00102627761
0.349084716913
0.999884559984
0.998058577154
0.997728274521
0.364955945912
1.04254881108
1.04290134516
1.03953913988
1.04047855861
0.339051405704
1.04182277982
1.04234762754
0.361562961977
1.00060295772
1.03438341816
1.03646675257
1.03046136571
1.03391053412
1.00030062495
1.00147522859
1.03963379518
1.04138117782
1.03716234612
1.03907100728
1.00124836195
0.341630974298
1.0407643435
1.04173075757
0.373048781776
0.766174080969
0.771650033796
0.700232965926
0.705133231103
0.332975203705
0.736233472599
0.741003793642
0.355352534727
0.346277630706
0.726671516008
0.731343047923
0.754974269221
0.760637275512
0.368940264619
1.04269935643
0.984654733227
0.982862878405
0.989042944429
0.98715541617
1.04276413007
1.03996424787
0.957612334503
0.954836871527
0.962546817842
0.960232627936
1.04016433684
0.336047304945
0.71007330766
0.714681881069
1.04199217885
0.975909900452
0.9734865132
0.979917816961
0.977289727003
1.04213885528
0.358314342871
0.745301040078
0.750006885076
0.718781444529
0.722573916332
0.343868235239
1.04120657232
0.966817121605
0.964636450311
0.972094266299
0.969370261045
1.04147310506
1.01999892086
1.01955429115
1.03849801619
1.04021056451
1.02090564183
1.02040990683
1.02190718157
1.02137219683
1.04079619004
1.03785757259
1.01915279224
1.01869976234
1.01833691529
1.01791891812
1.035694885
1.03491129962
1.0177430692
1.01731883853
1.01707288082
1.0168308856
1.03255923852
1.03148034409
1.01667205644
1.01662566216
1
1
1
1
1
1
1
1
1
1
1
1
1.00000000001
1.0000000001
0.999999996968
0.999999868124
1.00000169866
0.999783314995
1.00003297439
1.00004579708
1.00000242982
0.3278591167
0.299685800905
0.99965157068
0.997603861649
0.997391538167
0.999754837757
0.313936013508
1.0029459699
1.00189524571
1.00438520127
1.00316458295
0.312347459886
0.999695170105
0.997162267752
0.996928671449
0.322457936787
1.03744598399
1.03901898764
1.02958178631
1.03168957059
0.304167356465
1.03510786555
1.03688788718
0.319967405586
1.00260640532
1.04383192688
1.04512225633
1.04191718299
1.0433870611
1.00213348909
1.00413308589
1.04687521455
1.04780974348
1.04554657811
1.04663927492
1.00346884991
0.305894668231
1.03221316719
1.03473387005
0.326129762774
0.69218011593
0.695854505735
0.640188427381
0.643476652924
0.301255851134
0.669342005645
0.672649656713
0.315483692286
0.310327919119
0.661923015762
0.665964900608
0.685041314257
0.688743982323
0.324454292241
1.03799702144
0.947391284058
0.945112854173
0.952122635521
0.949672642606
1.03853549742
1.03009466594
0.917497761756
0.915082127769
0.921995025217
0.919766757678
1.03088505442
0.30271266332
0.646528661396
0.649602166125
1.03571485076
0.93765370715
0.93537120838
0.942678602182
0.940128309459
1.03631098197
0.317477915618
0.676532280871
0.680837057924
0.653168547466
0.65740596494
0.308021003829
1.03290004995
0.92735481612
0.924520008009
0.93300663093
0.930301648655
1.03388390915
1.04241191408
1.02292902044
1.0224006453
1.02393287213
1.02340284484
1.0429198434
1.0441790798
1.02490188141
1.02438631911
1.02601408361
1.02538877234
1.04465142688
1.0459388485
1.0270902925
1.02649047139
1.02815835554
1.02757025008
1.04629366506
1.04722040315
1.02911532572
1.02860831362
1.03012416014
1.02959971776
1.04747736967
1
1
1
1
1
1
1
1
1.00000000001
1.0000000002
0.999999992314
0.999999751236
1.00000400957
0.999564016981
1.00005445158
1.00006322844
1.0000050408
0.298025452173
0.279352346491
0.999347087128
0.996701553601
0.996472855293
0.999512842793
0.289451961651
1.00624507214
1.00474717816
1.00868123883
1.0070780784
0.288268270784
0.999407178312
0.996231314303
0.996029986873
0.294077105028
1.02613113264
1.02869982934
1.01366321635
1.01764844073
0.283532527948
1.02209699186
1.02490372487
0.29297710334
1.00579349212
1.04895956743
1.04942446733
1.04808982271
1.04887037164
1.00550900424
1.00789311773
1.04999642144
1.0501177509
1.04957355402
1.04991662232
1.00741154751
0.284882731016
1.01838515657
1.02151609123
0.296480026648
0.633214445054
0.636669501015
0.589776616189
0.592919140094
0.280504798216
0.614792303944
0.617818879804
0.290640782345
0.287189322681
0.609027651658
0.611794457001
0.626919919591
0.629923833665
0.295171335747
1.02663037468
0.907419687954
0.905044716432
0.912536464292
0.909948987492
1.02725702115
1.01477092464
0.87721466891
0.874508531347
0.88313850546
0.880297062709
1.01673763052
0.282013661494
0.59669845472
0.600239409597
1.0230112929
0.897631052907
0.895180461094
0.902604863663
0.900140999712
1.02394309294
0.291861625136
0.620929965103
0.623939652204
0.603405858699
0.606272489435
0.286103078631
1.0191023843
0.888100825546
0.885751439909
0.892720006518
0.890453690646
1.02067491218
1.04832242185
1.03113449168
1.0306109179
1.03213481136
1.03162715658
1.0486033224
1.04912993131
1.03308460128
1.03259363063
1.03399579286
1.03354358514
1.04925158567
1.04974252568
1.03496516036
1.03446675902
1.03588724337
1.03542361433
1.04980962663
1.05009182826
1.03674457502
1.0362490432
1.03765266383
1.03715235585
1.05011252119
1
1
1
1
1
1
1
1.00000000002
1.00000000032
0.999999984673
0.999999638637
1.00000759857
0.999220681212
1.00007183144
1.00008245683
1.00000959041
0.278667066278
0.266584060422
0.998930115264
0.995801793941
0.995660459918
0.99915105909
0.27328349346
1.01094299354
1.00903966277
1.01384922768
1.01197841538
0.273033982534
0.999008012501
0.995457638164
0.995354159565
0.276191847126
1.00935592957
1.01241206347
0.995716850871
0.998913714515
0.268614445716
1.00493963671
1.00869522439
0.275091564108
1.01035020144
1.04998320202
1.04956340554
1.05009618064
1.05000851936
1.00998397156
1.01331379725
1.04887917361
1.04809943595
1.04945874483
1.04913024941
1.01236962987
0.269841697114
1.00010737528
1.00424974164
0.278006216764
0.585294631488
0.587457062408
0.551487636265
0.553151333711
0.26699849086
0.571333042396
0.572694728332
0.273556635596
0.272402441246
0.566763297626
0.569387953624
0.579782787141
0.58268222701
0.27723993384
1.01020186161
0.867628235775
0.865018549938
0.872233255368
0.870089800588
1.0118233086
0.997028113849
0.839309085936
0.837400948879
0.843672492608
0.841370380522
0.997751578538
0.267649569416
0.555074590514
0.5574583757
1.00594613823
0.858437792678
0.856840758828
0.862486572326
0.860257899728
1.00711178058
0.274023342085
0.574460657171
0.576825860943
0.560383155753
0.563499784299
0.271135025539
1.001331042
0.849277670971
0.846418002568
0.854771551563
0.852273534147
1.00343810869
1.0500859109
1.03847711638
1.03808848893
1.03927831127
1.03887577511
1.05002970283
1.04988292278
1.04000139255
1.03964903777
1.04063352992
1.04034721069
1.04968865845
1.04937556239
1.04129068225
1.04097308729
1.04188144599
1.04166394017
1.04922669807
1.04876696767
1.04248554679
1.04219187126
1.04310062925
1.0428180084
1.0483992683
1
1
1
1
1
1
1
1.00000000004
1.00000000059
0.999999968506
0.999999488346
1.00001175229
0.998771037246
0.998234302741
1.00008971814
1.00009293651
1.0000160925
0.266156110498
0.255256461287
0.998418839289
0.254492776835
0.244850084293
0.997829141184
0.995225548127
0.99515520759
0.998685379912
0.995092956358
0.995136974986
0.998132607414
0.25988651441
1.01646095819
1.01422613035
1.01926411167
1.01732762373
0.259774691531
0.998509768914
0.995080556207
0.995073327106
0.250187553305
1.02223799507
1.02000173765
1.0249700645
1.02317568364
0.249731277135
0.997943589061
0.995239664078
0.995346976005
0.263284845551
0.992035658684
0.995110469526
0.978036510419
0.981738228614
0.257763705987
0.252364381655
0.973115705103
0.976837483752
0.956725286939
0.961246596368
0.247294075407
0.987390713619
0.990744257518
0.261948461794
1.04789382524
1.04704912565
1.01499315779
1.01863181531
1.04391832194
1.04301495796
0.258760057444
0.983067862405
0.986445693926
0.967794131491
0.971814690826
0.251781192753
1.02169770102
1.04083839415
1.03944344949
1.04246906343
1.04156161983
1.02088964013
1.02416295514
1.03722181103
1.03579059461
1.0390517895
1.03764955272
1.02379392328
0.248057708173
0.962679492187
0.966554292961
0.265581681678
0.547469706922
0.549731278383
0.515696783979
0.517714059569
0.256010193403
0.253747779568
0.511528441444
0.513620257416
0.484529405694
0.486786627923
0.24567012556
0.53186723135
0.533107565835
0.260137729155
0.259684394753
0.529451637304
0.530817754272
0.500126536971
0.501860575569
0.250673455332
0.249267982056
0.496983630038
0.498532626577
0.541235491326
0.54456121546
0.264564547884
0.835398868662
0.833032230899
0.994423143932
0.979182449308
0.801384166274
0.799243207404
0.806302592579
0.803750327404
0.980452737622
0.256855140654
0.519958852972
0.522385961436
0.507489199345
0.509385607478
0.252992347239
0.974347053094
0.792539275012
0.790380129528
0.797076994751
0.794839755524
0.975632371683
0.958320751965
0.76626229257
0.763659931978
0.771119060199
0.768790823286
0.959872073754
0.246501246891
0.489042143623
0.491137179061
0.260818154233
0.535086323028
0.537890745566
0.525006722661
0.52743667399
0.259468431581
0.969100412104
0.783718586112
0.781622029027
0.788234224846
0.786004132386
0.970472629773
0.251222288337
0.50377757188
0.50565073456
0.493259033907
0.495212683859
0.248712614919
0.964028096449
0.775722604263
0.77347154109
0.779693916571
0.777815687398
0.965337408535
0.993244577856
0.830224265418
0.827078140486
1.01571708643
1.04684005508
1.04567069706
0.823886257649
0.821070841473
0.989482694976
0.988350801652
0.818871588867
0.817249911803
1.04540012873
1.04424568756
1.01784922733
0.815763328385
0.813940102102
0.985548800348
0.984336290595
0.811582382577
0.808985156803
1.04751440192
1.04360235098
1.04336363108
1.04409183588
1.04386059747
1.04725506981
1.04623777192
1.0444632121
1.0442914257
1.0448093314
1.04464373586
1.04591168888
1.04500703685
1.04504519764
1.04491540292
1.04524238766
1.04512652304
1.04476772598
1.04358122724
1.04559235249
1.04541881997
1.04580561027
1.04571415966
1.0432338813
1.04216393362
1.04598394007
1.04588958466
1.04627270962
1.04611528289
1.04187581795
1.04058290252
1.04646903759
1.04638078722
1.04659825709
1.04656421952
1.04014568274
1.03878558155
1.04668819854
1.04665262872
1.04682212613
1.0467734797
1.03834111297
1.03693152354
1.04690185333
1.04685508326
1.04695582488
1.04692455532
1.036139417
1
1
1
1
1
1
0.999999999999
1.00000000008
1.0000000002
1.00000000085
1.00000000106
0.999999949162
0.999999904606
0.999999339774
0.999999367575
1.00001971821
1.00003226249
0.997659331669
1.00009221719
1.00008902765
1.0000248021
1.00008219517
1.00005933836
1.00003928389
0.244100770646
0.236574884797
0.997211928746
0.995504238022
0.995676811713
0.997513799071
0.241365548361
1.02724916222
1.02531662258
1.02989596916
1.02823342052
0.241028304095
0.997377275347
0.99590592026
0.996189708992
0.242697922475
0.95121151884
0.955104141178
0.93391880519
0.938818607222
0.238358318733
0.946314390828
0.949931433369
0.242340199731
1.02663458893
1.03304842927
1.03132256604
1.03517970732
1.03373810577
1.0259257977
1.02946688686
1.02814790228
1.02620671784
1.03075073343
1.02883144555
1.02860883979
0.239247900672
0.9407414704
0.945160410722
0.243524161503
0.480663687972
0.482385247689
0.458724543589
0.45994405113
0.236935847392
0.473030580053
0.474085681559
0.241676125844
0.240680275972
0.470532688591
0.471885432484
0.477930394366
0.479216207102
0.243060026974
0.952389021796
0.757221716731
0.755557237782
0.761144820032
0.75903503975
0.953664962912
0.935210390811
0.732692244857
0.731039652392
0.737791135011
0.734998184278
0.936886771292
0.237546474614
0.461681066903
0.463897380535
0.94743363451
0.750298446838
0.748839071854
0.753776250119
0.751974992427
0.9486711571
0.242015591342
0.475295273342
0.47658923874
0.466370992067
0.468670353578
0.240093760917
0.942462100701
0.743398834363
0.74072903035
0.747339115942
0.74562062077
0.943908932604
1.03472167143
1.04695701442
1.04696143817
1.04693702059
1.04695410294
1.03418425588
1.03253869019
1.04688888452
1.04690492072
1.04679574042
1.04686392182
1.03187308568
1.03032621715
1.04671613817
1.04675691841
1.04664324358
1.04669736801
1.02990269452
1.02766294547
1.04651180385
1.04658886882
1.04632150326
1.04645673885
1.02700998687
1
1
1
1
1
1
1
1
1
0.999999999999
0.999999999999
1
1.00000000044
1.00000000078
0.999999865951
0.99999969245
1.00004303134
0.997061130419
1.00001621311
0.999994395138
1.00005304385
0.236224716993
0.229532992028
0.996636513907
0.996468857137
0.99683961591
0.996922804698
0.233566757327
1.03210002555
1.03021309988
1.03423514646
1.03261337149
0.233316357779
0.996772246785
0.997156567829
0.997622938198
0.235020496013
0.929040878367
0.932859349575
0.911028560319
0.915961954596
0.231550409878
0.922871175774
0.927321156884
0.23461008823
1.03173214257
1.022906203
1.02096213605
1.02585794723
1.02398575529
1.03072151561
1.03363627396
1.01717304007
1.01529317823
1.02001758063
1.01791301932
1.03322709061
0.232147693494
0.917802775654
0.921867308986
0.235818251301
0.456683379144
0.45768954062
0.43689593907
0.438423971132
0.230138264915
0.44856076084
0.449643271864
0.233874000913
0.232990751858
0.446459278694
0.447558653362
0.454104651146
0.455497228246
0.235391178105
0.930483768397
0.726664079445
0.724696653028
0.729670620251
0.72831993873
0.931787284214
0.912619888512
0.703299155001
0.701308661864
0.707858935071
0.705530009705
0.914240417225
0.230864246717
0.440161027898
0.441900728296
0.924072271865
0.71843981299
0.71695379165
0.722476353084
0.720312042078
0.925627514059
0.234306849412
0.450963842207
0.452498551943
0.443603456506
0.44512853725
0.232618989775
0.919462618615
0.712448321058
0.710255231358
0.715679217945
0.714277042492
0.920810616446
1.02514215687
1.04611382994
1.04623752188
1.04591272328
1.04596235747
1.02435689122
1.02212251784
1.04564555163
1.04580084713
1.04531795358
1.04548766156
1.02140477474
1.01968240455
1.04497117553
1.04512711353
1.04469476934
1.04485149852
1.01918587586
1.016628221
1.04440978657
1.04459189709
1.04406767231
1.04430734387
1.01595831244
1
1
1
1
1
1
1
1
1
1
1
1
1
0.999999999999
1
1.00000000086
0.999999999475
0.999999739901
1.00000031286
1.00006642253
0.996509977287
0.999963219848
0.999916573487
1.00007327748
0.229032470913
0.225162144616
0.996137259346
0.997991472487
0.998521313924
0.996374904636
0.227791356208
1.03610901192
1.03474498795
1.03756494448
1.03634172299
0.227449092614
0.996264334104
0.99885163942
0.999460711237
0.228333272706
0.905863323538
0.909572721461
0.889136623387
0.894383665877
0.226056798987
0.899868591728
0.904561554938
0.228212431609
1.03569589487
1.01127246333
1.00883564346
1.01437490761
1.01219170028
1.03501205197
1.03705958784
1.00504984162
1.00264753664
1.008176476
1.00622502804
1.03669461806
0.226325087818
0.895626322566
0.898361449024
0.228721001367
0.434346142007
0.43550374493
0.419829774416
0.42100417802
0.22535925058
0.42891655437
0.429888826313
0.227996701354
0.226956497105
0.426718441838
0.427724977918
0.432481758206
0.433348009794
0.228483045927
0.907125742572
0.696482548878
0.695143568829
0.69946893311
0.697900309769
0.908457202177
0.890027109138
0.677560750001
0.675805725162
0.681640901657
0.679591254638
0.892411581388
0.225697352999
0.422342701696
0.423665967336
0.901449121471
0.690281025745
0.688571068349
0.69369927858
0.692105386181
0.903088220499
0.228122588782
0.430769925522
0.431644718484
0.424806361557
0.425783069619
0.226545212063
0.896487518945
0.684426906259
0.683056824449
0.68703861626
0.685723914398
0.897298031606
1.01386606373
1.04356514907
1.04380658702
1.0430664008
1.04332259034
1.01272594014
1.01072980693
1.0426957352
1.04287992071
1.04220274737
1.04250354257
1.00967759566
1.00769023562
1.04174200777
1.04195230199
1.04107822822
1.04140270403
1.00672964448
1.00454879057
1.04056637484
1.04083276704
1.04004344296
1.04033469004
1.00336341443
1
1
1
1
1
1
1
1
1
1
1
1
1
1
1
1
1
1
1
1
1
1
1
1
1
1
1
1
1
1
1
1
1
1
1
1
1
1
1
1
1
1
1
1
1
1
1
1
1
1
1
1
1
1
1
1
1
1
1
1
1
1
1
1
1
1
1
1
1
1
1
1
1
1
1
1
1
1
1
1
1
1
1
1
1
1
1
1
1
1
1
1
1
1
1
1
1
1
1
1
1
1
1
1
1
1
1
1
1
1
1
1
1
1
1
1
1
1
1
1
1
1
1
1
1
1
1
1
1
1
1
1
1
1
1
1
1
1
1
1
1
1
1
1
1
1
1
1
1
1
1
1
1
1
1
1
1
1
1
1
1
1
1
1
1
1
1
1
1
1
1
1
1
0.999999999998
1.00000000002
1.00000000135
0.999999997768
0.999999678288
1.00000137625
1.00008099451
0.996047782906
0.99986353435
0.999835696795
1.00008575746
0.224904609945
0.219516157144
0.995708153685
0.999843952546
1.00079835075
0.995933170283
0.221775431523
1.03908188836
1.03793483229
1.0401410339
1.0393430015
0.221574322963
0.995808689999
1.00142034585
1.00188629075
0.223433411853
0.884309092043
0.888091732152
0.865376830345
0.870224473909
0.22052287614
0.877952287696
0.882584759345
0.222849923031
1.03873641921
0.998436590675
0.996008967521
1.00191926098
0.999655989662
1.03852949439
1.03986695809
0.992623820072
0.990217549797
0.995502031073
0.993426459264
1.03956394079
0.220884897401
0.871869457698
0.876516959006
0.224521862975
0.418106821524
0.419052160428
0.402572055411
0.403830855593
0.219902911057
0.411036961612
0.412115816697
0.222130014738
0.221373743948
0.40899733905
0.410034541282
0.415586557214
0.416835030807
0.224126759095
0.885901374035
0.67136722746
0.669659147282
0.674230594064
0.672929072633
0.887314043309
0.654454157559
0.652679645013
0.868585313124
0.220169517009
0.404958837598
0.406037694836
0.879429338715
0.664465240797
0.662854733972
0.66786744466
0.666136299681
0.880967671731
0.222408802496
0.413225409084
0.414384072218
0.407144702674
0.408065672567
0.221193869571
0.873410121396
0.657941703895
0.656210340224
0.661299907117
0.659652249514
0.87497750403
0.866948383106
0.650837737593
0.648970020303
1
1
1
1.00135818164
1.0395583204
1.03986195657
1.03901038997
1.03924893856
1.00009455016
1
1
1
1
1
1
1
1
1
1
1
1
0.99759704681
1.0382350526
1.03865038296
1
1
1
1
1
1
1
1
1
1
1
1
1
1
1
1
1
1
1.03745768589
1.03791702201
0.997108594238
1
1
1
1
1
1
1
1
1
1
1
1
1
1
1
1
1
1
1
1
1
1
1
1
1
1
1
1
1
1
1
1
1
1
1
1
1
1
1
1
1
1
0.994866264285
1.0365690631
1.03694114215
1
1
1
1
1
1
1
1
1
1
1
1
1
1
1
1.03575728706
1.03630088464
0.994135989659
0.991669134245
1.03498624804
1.03537498187
1.03423969428
1.03461855585
0.99096358741
1
1
1
1
1
0.999999999997
1.00000000004
1.00000000151
0.999999995631
0.999999602201
1.00000219801
1.00009496015
0.995601854773
0.999767389117
0.999722341084
1.00010157882
0.219082070397
0.213823337727
0.995371635198
0.216855917041
1.04081126157
1.0402867577
1.04142073823
1.04097886963
0.216545160983
0.99542563545
1.0040199752
1.00473047188
0.218176081438
0.858785718903
0.863791687677
0.840908371642
0.846037729162
0.215133746336
0.854008146339
0.857403477977
0.217922730826
1.04130850644
0.979282213659
0.976347878114
0.215586621868
0.848079149433
0.852925418348
0.218619717157
0.400096930972
0.401283636717
0.385646245653
0.386662089295
0.214239809423
0.395027913174
0.395872417406
0.217223388167
0.216359863729
0.393171632977
0.394143727511
0.398154524289
0.399051663728
0.21839010174
0.842586365513
0.624125821416
0.622432015945
0.214567517612
0.387847567103
0.389206497365
0.217604157313
0.39667870409
0.397396966261
0.390687842786
0.39202200092
0.216141949985
0.983149604945
0.980175077078
1.04115818493
0.849928131228
0.632356157086
0.630279540237
0.635716083455
0.63421687141
0.851598162024
0.628079211429
0.62599970304
0.844229304441
1.0022577595
1.00295025612
0.995517988572
0.989390909677
0.986626760943
1.04050275534
0.86047938917
0.643579361982
0.642003932662
0.647115522455
0.645302318705
0.862170190178
1.04062819073
0.985781558033
0.983685431707
0.640604140877
0.639406171292
0.85615461985
0.855000091211
0.638181139429
0.636990455867
1
1
1
1
1
1
1
1
1
1
1
1
1
1
1
1
1
1
1
1
1
1
1
1
1
1
1
1
1
1
1
1
1
1
1
1
1
1
1
1
1
1
1
1
1
1
1
1
1
1
1
1
1
1
1
1
1
1
1
1
1
1
1
1
1
1
1
1
1
1
1
1
1
1
1
1
1
1
1
1
1
1
1
1
1
1
1
1
1
1
0.988726188072
1.03351327868
1.03389528134
1.03268945192
1.03313785478
0.987704552659
0.984946336783
1.0317766954
1.03212147817
1.03109025419
1.03143230013
0.984232335748
0.98225084608
1.03038518394
1.03075023842
1.02966480167
1.03000864739
0.981360795602
0.978410090664
1.02879470439
1.02940146841
1.02796064271
1.02838832415
0.977304941324
1
1
1
1
1
0.999999999994
1.00000000005
1.00000000193
0.999999990383
0.999999985649
0.999999403719
0.999999311792
1.00000363287
1.00000508597
1.00010837052
1.00011907857
0.995315521681
0.995394149678
0.999620988609
0.999566290298
1.00011365287
0.999455262841
0.999384497604
1.00012366664
0.213325759915
0.209676192984
0.995279685868
0.209545193113
0.207692998689
0.995757797655
1.00531663683
1.00652483419
0.995294529813
1.00954245758
1.01236066058
0.995534050243
0.211430877225
1.04162210987
1.04147993168
1.04171402796
1.04166053516
0.211101730824
0.995281164605
1.00719111362
1.00751163456
0.208492429428
1.0387724766
1.04105883647
1.0374243302
1.03853446017
0.208361362733
0.9956394484
1.01319939836
1.01483050451
0.212446927548
0.836117296766
0.839419946117
0.818360423424
0.821021971047
0.210048551928
0.209169137637
0.814025731109
0.81744535463
0.79818647419
0.801254168256
0.207961869685
0.830262301491
0.835061195833
0.212160315446
1.0415693943
0.972337530756
0.968984581196
0.975343773397
0.973074346608
1.04151714324
1.04164252071
0.963800621173
0.961210317847
0.967873333211
0.964616286634
1.0416533524
0.210194624784
0.822576300627
0.828313452692
0.808616543747
0.812616796242
0.209074963693
1.0399182036
0.956750289849
0.95411093106
0.960378719266
0.957544535554
1.04010306711
1.03768772438
0.949521773283
0.947176240496
0.952963318018
0.950463165096
1.03788968725
0.20806002221
0.802555576444
0.806862513295
0.212972163441
0.383875847137
0.38474197028
0.371520720629
0.372030873251
0.209766252969
0.209412700894
0.370686549711
0.371024383574
0.36223128513
0.362642673724
0.207824463038
0.378931733598
0.379992648824
0.211662519237
0.210869016027
0.376580696896
0.377744145846
0.366400503447
0.367408234746
0.208669463073
0.208291137292
0.364770345133
0.365497216622
0.38248731695
0.383112058125
0.212675349482
0.837106864612
0.618482086356
0.617585093568
0.620920901188
0.6195969034
0.83821915025
0.818987594379
0.599700759994
0.59908749799
0.602184688611
0.600753309464
0.819876114217
0.209895689468
0.372686326905
0.373517833727
0.369361521901
0.37006931503
0.209289109162
0.815468205689
0.596925915011
0.59585893171
0.598348794139
0.597775195876
0.816280504936
0.798965308717
0.582341480887
0.581623623621
0.583839386157
0.582936566114
0.800343324514
0.207881822565
0.362914184592
0.363415462552
0.832116837538
0.613720298465
0.61180973219
0.616553675933
0.615229716576
0.833724974267
0.211824839138
0.380948470164
0.381776176695
0.374449837022
0.375445555788
0.210442207027
0.824460338753
0.605872443974
0.603912847186
0.609861320712
0.607843354429
0.826327709176
0.809720188002
0.591424812918
0.590094246896
0.594702664341
0.592946308978
0.811139001641
0.208889158621
0.368285309536
0.368795796523
0.363946226798
0.364275569705
0.208188166924
0.803255043841
0.585799010429
0.585103842448
0.588239301081
0.586487597563
0.804793648388
1
1
1
1
1
1
1
1
1
1
1
1
1
1
1
1
1
1
1
1
1
1
1
1
1
1
1
1
1