/*--------------------------------*- C++ -*----------------------------------*\
  =========                 |
  \\      /  F ield         | OpenFOAM: The Open Source CFD Toolbox
   \\    /   O peration     | Website:  https://openfoam.org
    \\  /    A nd           | Version:  8
     \\/     M anipulation  |
\*---------------------------------------------------------------------------*/
FoamFile
{
    version     2.0;
    format      ascii;
    class       volScalarField;
    location    "2e-05";
    object      N2;
}
// * * * * * * * * * * * * * * * * * * * * * * * * * * * * * * * * * * * * * //

dimensions      [0 0 0 0 0 0 0];

internalField   nonuniform List<scalar> 
50271
(
0
0
0
0
0
5.55111512313e-16
5.55111512313e-16
0
6.43929354283e-15
0
0
8.03757060908e-12
0
9.05269081919e-10
3.64875507586e-09
1.82913906244e-10
0.0754696806031
0.303932576487
0
0
0
1.1471130712e-09
2.37467301378e-09
2.60908228356e-09
1.77212511332e-09
0.240982172141
3.8884526643e-06
0
0.000392244486955
1.03122623097e-05
0.247172850226
3.50483675415e-09
0
4.18877915402e-05
0.173914043055
0
8.93743527564e-05
0
0
0.286460170099
1.41961720157e-08
0
0
0
0
0
0
0
0.198179342261
9.25615895153e-07
3.90643113617e-05
0
6.04070023846e-06
0.000113988858433
0
0.000252614614648
0
0
0
0
0.000140052918039
0.273998718147
0
0
6.6635585938e-12
0
5.15600806494e-09
1.61393895051e-05
0
0
0
0
1.33376302691e-05
0.115165291041
0
0
0.0227934887659
0.0201984162344
0.300547492837
0
0
0.230487838113
1.30472275917e-06
3.17010409193e-05
4.60502664095e-05
9.65051882186e-05
0.000146364858359
0
0.256484345115
0.00496779662263
0.00163962223769
0
0
0
0
0
0.140669754786
0
0
0
0
0
1.09700024622e-05
0
0
0
0
0
0
0.291712800018
0.0173189952175
0.0142475508087
0
0
8.22042800497e-09
0
0
0
0
0
0
0.210468608459
0
0
0
0.000119395707983
7.24838968341e-05
0.000218973429565
0.000149071336252
0
4.33263003828e-05
9.29799506499e-07
0
4.93641496799e-05
9.88207360386e-06
0.00015464031092
0.0123965405047
0.00888736618019
0.266717856872
0
0
0
0
0
0
0
0
3.20772315121e-06
0
0
0
0
0
0
0
0
0
0
0
0
0
0
0
4.68403094089e-13
6.47015885313e-10
0
0
0
0
5.85498505234e-09
0.310954255411
0.399733569352
0
3.01468193015e-05
5.54701979798e-05
0
0.357225119402
0.00108431445241
0.000548869265501
0.00175009293559
0.00125684462581
0.363093449321
0
0.000110457407331
0.000161467071148
0.332219268998
0
0
0
0
0.384869882981
0
0
0.338427194783
0.000904150149456
0
0
0
0
0.00071275848991
0.00158220918635
0
0
0
0
0.00145108160483
0.379823216424
0
0
0.318638844188
0.028474111847
0.0254189116921
0.0727298955368
0.0686310486355
0.394541324256
0.0453321959691
0.0427641666012
0.351125501829
0.368979168137
0.0523698987181
0.0481702297647
0.0335425918622
0.0308115660009
0.325690406831
0
0
0
0
0
0
0
0
0
0
0
0
0.38955868007
0.0646344020825
0.0608994255473
0
0
0
0
0
0
0.344861790767
0.0394464635538
0.0368899238766
0.0583791538423
0.0555687033254
0.374496805102
0
0
0
0
0
0
0
0
0
0
0
0
1.01030295241e-14
0
0
1.10216613614e-10
8.85293638397e-09
4.84860041006e-09
0
0
0
0
0
2.43213726936e-09
0
0
0
0.404457724328
0.456146440821
0
0.458601103795
0.484322862302
3.54061652014e-05
0.000265359410342
0.000342092442596
0
0.000792605240519
0.000950900512846
0
0.431100820395
0.00223591959814
0.00188760379681
0.0022092672802
0.00227373631154
0.434237188537
0
0.000553978335337
0.000666125678344
0.471469816534
0.00158026626742
0.00213436790999
9.21651748456e-05
0.00141327033565
0.473418391608
1.42546699562e-05
0.00131279298075
0.00146968454445
0.416428718034
0
0
0
0
0.447191440875
0.464742513086
0
0
0
0
0.480303373709
0
0
0.42037118713
0.0021172447522
0
0
0
0
0.00204318690066
0.00224819788495
0
0
0
0
0.00226806889451
0.444690442278
0
0
0
0
0.466505548202
0.00183588527383
0
0
0
0
0.00191778146595
0.000535281574332
0
0
0
0
0.000921629671855
0.478037654666
0
0
0.408373945416
0.0803253492738
0.0766663335006
0.136548375152
0.131873897032
0.45280727291
0.460408514321
0.144247518829
0.14071592563
0.198077760827
0.194663160624
0.48318161135
0.103433437903
0.0996756587614
0.427884255355
0.437953850244
0.111380483345
0.107103756792
0.167462563987
0.162973401024
0.469155053951
0.474708826516
0.175169970739
0.171749251169
0.0878759765473
0.0840030400687
0.412229011289
0
0
0
0
0
0
0
0
0
0
0
0
0.449860263265
0.127543518294
0.12367364438
0.152525814174
0.148070801369
0.462197131692
0
0
0
0
0
0
0
0.00480418318416
0.0061860747699
0.00147022261316
0.00323966151901
0
0.481990743942
0.191209407164
0.187219533538
0
0
0
0
0
0
0.424205932094
0.095690129759
0.0916577874215
0.119881689053
0.115702452561
0.441618591611
0
0
0
0
0
0
0
0
0
0
0
0
0.467732335883
0.159481158465
0.156449953685
0.1827975201
0.178632379401
0.475942044618
0
0
0.000200787367842
0
0
0
0
0
0
0
0
0
0
0
0
0
0
0
0
0
0
2.35367281221e-14
3.97459842816e-14
0
0
0
0
4.81973461142e-10
1.14481002456e-09
2.29668742913e-08
5.72464288195e-08
0
4.94746703701e-05
0
0
0
0.486047374303
0.50614165575
0.000145331647011
0.00164054560403
0.00177305469295
8.42495062271e-05
0.497276840423
0
0
0
0
0.498566153491
0.000115439971462
0.00194141978367
0.00227172142682
0.491849509649
0
0
0
0
0.502388333208
0
0
0.493312789667
0
0
0
0
0
0
0
0
0
0
0
0
0.501388804479
0
0
0.488086208444
0.206589224075
0.20199736092
0.259412752428
0.25557604941
0.504981222493
0.231059290813
0.227193385192
0.495905017267
0.49971511706
0.238694042632
0.234931124639
0.215803082291
0.21112354206
0.489997582436
0
0.012154945602
0.0138421021729
0.00802051709786
0.00979177635737
0
0
0.0374287243798
0.0400253961851
0.0328235400639
0.0350056067919
0
0.503646861723
0.251788344128
0.24814911773
0
0.0203495035995
0.0226192202802
0.0165939718723
0.0190446167347
0
0.49471721743
0.223745075672
0.219864740883
0.244963871518
0.241919227625
0.500583768586
0
0.0288362544756
0.0308865945514
0.0239275505491
0.0264784513428
0
0
0
0
0
0
0
0
0
0
0
0
0
0
0
0
0
0
0
0
0
0
0
0
0
0
0
0
0
0
0
0
0
0
1.33226762955e-15
7.54951656745e-15
1.03916875105e-13
0
0
3.0315737698e-09
1.31875530052e-07
0
0.000216684943502
0
0
0
0.507024739289
0.516949661617
0.000348429237117
0.00239613399853
0.00260845691126
0.000245162175776
0.51194105945
0
0
0
0
0.512420385446
0.000304829819611
0.00283772660968
0.00307132235674
0.508721384316
0
0
0
0
0.515570632376
0
0
0.509743758205
0
0
0
0
0
0
0
0
0
0
0
0
0.51497171047
0
0
0.507527100495
0.265605332406
0.262723962867
0.303773944979
0.301416263309
0.516438159803
0.282729290849
0.280231976015
0.511465927651
0.51318861075
0.288206434342
0.285192994401
0.271051388686
0.268176109067
0.508050946063
0
0.0468789124777
0.049005344692
0.0425152987695
0.0447958655545
0
0
0.074255134781
0.0764712323938
0.0701710960082
0.0722152932128
0
0.515999355962
0.299303265183
0.297085305576
0
0.0558598886327
0.0579784978826
0.0512339825891
0.0535989737338
0
0.510742789591
0.277401444676
0.274158344512
0.294577138565
0.291467840769
0.514134368643
0
0.0652972948038
0.0678933482532
0.0601378854656
0.0626280470865
0
0
0
0
0
0
0
0
0
0
0
0
0
0
0
0
0
0
0
0
0
0
0
0
0
0
0
0
0
0
0
1.1990408666e-14
2.07056594093e-13
0
0
7.68584806909e-09
2.48764110977e-07
0
0.000435982925372
0
0
0
0.51752586397
0.523708245119
0.000652912749268
0.00329843925611
0.00352713693094
0.000487157103238
0.520058416056
0
0
0
0
0.52042722094
0.000592821578278
0.00376867712042
0.00397000329035
0.518714471512
0
0
0
0
0.522024274073
0
0
0.518989752696
0
0
0
0
0
0
0
0
0
0
0
0
0.521451619246
0
0
0.518048604119
0.308637482247
0.306187835867
0.337605292464
0.33553877341
0.523311177653
0.321182762811
0.319117037936
0.519680475814
0.520725300111
0.325005917942
0.323131588167
0.312981925998
0.310867991927
0.518446579392
0
0.0833620465124
0.0855226937967
0.0787469648892
0.0811110980536
0
0
0.110245658286
0.112633263491
0.105039939862
0.107558402718
0
0.522673172997
0.333124622053
0.330765099447
0
0.0921450438065
0.0943521212365
0.0876897154925
0.089925266412
0
0.51931747748
0.317052634285
0.31497588919
0.328719658405
0.326782639949
0.521047986006
0
0.100635758044
0.102740882404
0.0965225619079
0.0985514576352
0
0
0
0
0
0
0
0
0
0
0
0
0
0
0
0
0
0
0
0
0
0
0
0
0
0
0
0
0
0
3.697042672e-14
2.97983859809e-13
0
0
1.53269856806e-08
3.61362556989e-07
0
0.000779318658576
0
0
0
0.523919001246
0.528030744832
0.00106988456287
0.00419819549923
0.00433952805953
0.000848940764982
0.525249447615
0
0
0
0
0.525325862478
0.000991987345066
0.00454234879957
0.00464582525903
0.524653274329
0
0
0.00174114698591
0
0.527371368874
0
0
0.524993651411
0
0
0
0
0
0
0
0
0
0
0
0
0.526842021574
0
0
0.524057796381
0.340430236267
0.339031865199
0.360789888104
0.359831443592
0.527923332964
0.348951539073
0.348139241598
0.525227819079
0.525614880857
0.351693680349
0.350065462641
0.343882722594
0.342028793799
0.524323785818
0
0.118633280315
0.120915265547
0.114611842835
0.116506950573
0
0.000519036406606
0.142986123474
0.144627407249
0.139281556087
0.141243113441
0
0.527732061925
0.358744376455
0.357338181732
0
0.126589674491
0.12800361335
0.123077285421
0.125030982924
0
0.525183498636
0.347134240566
0.345670907252
0.35560188952
0.353682752674
0.526225527894
0
0.134498571571
0.136953756487
0.129778208321
0.131943980452
0
0
0
0
0
0
0
0
0
0
0
0
0
0
0
0
0
0
0
0
0
0
0
0
0
0
0
0
0
0
5.7620574978e-14
4.77284878286e-13
0
0
3.14937171897e-08
5.11653624136e-07
0
0.00122896256956
0.00176569698939
0
0
0
0.528178396785
0.533565304089
0.0015811604591
0.533972609364
0.539983989784
0.00217085844131
0.00477443548468
0.00484477376795
0.00131461987907
0.00490701825148
0.004862995641
0.00186739228051
0.531142643753
0
0
0
0
0.531179139285
0.00149023086397
0.00491942374514
0.00492664897604
0.536518082438
0
0
0
0
0.536793110463
0.00205641061096
0.00476030358653
0.0046529855411
0.529588320801
0.00518259516065
0.00230760681755
0.0181967951937
0.0147448092287
0.532268069427
0.535204779256
0.0227453973164
0.0192871513175
0.0378358953936
0.0336660737064
0.538344670953
0.00950551455317
0.00638350310316
0.530228014396
0
0
0
0
0
0
0.531741466388
0.0135268054732
0.010372746283
0.0276625545666
0.0239433000191
0.535553848243
0
0
0
0
0
0
0
0
0
0
0
0
0.537846958584
0.032365700905
0.0287926874159
0.528458746591
0.363149472512
0.361789985558
0.38133960977
0.380173535006
0.533169773972
0.534397884635
0.383636401129
0.382430691262
0.398130252096
0.396891914859
0.539432860329
0.372284548415
0.371610367518
0.531045834729
0.531223365169
0.373536708079
0.372788418472
0.389788110877
0.388845405585
0.536224468879
0.537077789559
0.391423664071
0.390592282731
0.366899458367
0.364877731533
0.528965519588
0.146317396953
0.148338917576
0.00295159495366
0.01711423343
0.174535023088
0.176312997079
0.170533770243
0.172649131868
0.0159581006547
0.532742021104
0.378967866507
0.377536314531
0.385841239938
0.384770179691
0.534832591006
0.0215962604569
0.181679375939
0.183440969355
0.178029364853
0.179869467609
0.0204216785109
0.0363577671293
0.202390951271
0.204427960454
0.198611211616
0.20045616512
0.034945817486
0.538873498857
0.395703992841
0.39454828437
0.530749592592
0.370520240524
0.368869165328
0.376072003859
0.374636633053
0.531350686183
0.0264476507387
0.188707387457
0.190391555142
0.185125497129
0.186924232566
0.0251891359539
0.535893377004
0.387833286839
0.386801556398
0.393421027333
0.392338106317
0.537429764243
0.0311140396058
0.195008012274
0.196798161098
0.191883464239
0.193389455826
0.0299254704613
0.00404978559772
0.150692851374
0.153349018468
0
0
0
0.156001187646
0.158363692991
0.00756498875061
0.00861226536139
0.160178757217
0.161550012117
0
0
0
0.162768379472
0.164300528768
0.0112149932867
0.0123309762223
0.166216069139
0.16837773064
0
0
0
0
0
0
0
0
0
0
0
0
0
0
0
0
0
0
0
0
0
0
0
0
0
0
0
0
0
0
0
0
0
0
0
0
0
0
0
0
0
0
0
0
0
0
0
0
0
0
0
0
0
1.09690034833e-13
1.02162722726e-12
0
0
0
0
5.08379561781e-08
9.53941508008e-08
6.6022560874e-07
6.32425368297e-07
0
0
0.00234066792799
0
0
0
0
0
0
0.540478943451
0.546011800432
0.00278807067108
0.00449571973535
0.00432313844075
0.00248620046627
0.54241136668
0
0
0
0
0.542671181768
0.0026227241493
0.00409402432964
0.00381022362825
0.54141998512
0.0428608926579
0.0393018930876
0.0584969079231
0.0540993431666
0.54465841393
0.0473076284405
0.0440139115879
0.541673726392
0
0
0
0
0
0
0
0
0
0
0
0
0.544001472621
0.0523637909707
0.0483427912699
0.540862803601
0.400156230428
0.399244143698
0.411313917521
0.410725370827
0.545722761156
0.403865595399
0.403351185356
0.542170465236
0.542944260085
0.405060744331
0.404371599206
0.401502678921
0.400850704218
0.541169327603
0.0417746575788
0.209329263375
0.210620743096
0.206331181168
0.207973706927
0.0406252378694
0.0573288841756
0.227730094381
0.228955657276
0.223949434418
0.226043623367
0.0558368163244
0.545261268829
0.409847363547
0.408635455976
0.0462744379911
0.214547676561
0.215673546061
0.211935136037
0.213324748209
0.0451710909205
0.541918047438
0.402802557536
0.402133248938
0.407297213402
0.406022501131
0.543382889661
0.0507979728255
0.219750416129
0.221778233404
0.216771867451
0.218100611269
0.0494907403731
0
0
0
0
0
0
0
0
0
0
0
0
0
0
0
0
0
0
0
0
0
0
0
0
0
0
0
0
0
0
0
0
2.40030217924e-13
5.86308779305e-13
1.05282449425e-12
3.9357406223e-13
0
0
1.34048663614e-07
3.07550413026e-07
0
0.00293886894368
0
5.60485773671e-06
0
0.546300238473
0.551895020133
0.00336348501079
0.00353106780348
0.00316029267986
0.00307719453493
0.54852579295
0
0
0
0
0.548740922238
0.00322775233135
0.00284332781967
0.00237693523622
0.547315347663
0.0628870185501
0.0594419075795
0.0788508473572
0.0745170423476
0.550214773366
0.0683561776838
0.0644151032652
0.547656161153
0
0
0
0
0
0
0
0
0
0
0
0
0.549725942939
0.0729004465926
0.0692578244109
0.546638910509
0.412224233272
0.411754067257
0.422171434458
0.421382436347
0.55137747046
0.416240943095
0.415738930654
0.548264526838
0.549014295349
0.41720749527
0.416679836188
0.413486334037
0.412774064938
0.546999409015
0.061591396863
0.23210111486
0.233545444003
0.229926483313
0.230909889696
0.0604219373338
0.0774405787382
0.248839650261
0.250231539088
0.245618741009
0.247286015718
0.0760361295291
0.550774940709
0.420483086608
0.419549924522
0.0672907713403
0.238076181786
0.239134168313
0.235155621011
0.236728446493
0.0659159634618
0.547906012199
0.415095685485
0.41430237443
0.418661010396
0.417861211956
0.549330189709
0.0714221753199
0.242315479732
0.243905539348
0.24002412179
0.241015883421
0.0702197596471
0
0
0
0
0
0
0
0
0
0
0
0
0
0
0
0
0
0
0
0
0
0
0
0
0
0
0
0
0
0
0
0
0
0
0
0
0
1.09134923321e-12
0
0
5.24551069248e-10
2.60099008886e-07
0
0
0.0034900215215
3.67801459318e-05
8.3426504716e-05
0
0.552331110877
0.556107570674
0.00386273875026
0.00200838759496
0.00147852176625
0.00362509394292
0.553583294137
0
0
0
0
0.553913160985
0.00373566432945
0.00114818222623
0.000539079095336
0.552975407273
0.0834151428502
0.0801288982806
0.0979205977321
0.093395697938
0.555254099032
0.0886231853509
0.0845710167763
0.553112504587
0
0
0
0
0
0
0
0
0
0
0
0
0.55499471709
0.0923182184955
0.089917770358
0.55260740309
0.423380588036
0.422838055628
0.4303269405
0.429722915737
0.555915911755
0.425858761525
0.425378257331
0.553370565424
0.554384930298
0.426929992918
0.426441006649
0.424179277203
0.423813020207
0.552827743343
0.0823073530969
0.253529638472
0.254458408656
0.251486393285
0.252569355018
0.0811156920191
0.0971427606182
0.266408036575
0.267535748183
0.26365247981
0.265047889247
0.0950968431666
0.555594173058
0.429041706917
0.428382889162
0.0872699083062
0.257785073632
0.258997389794
0.25543284642
0.256546265472
0.0858569084023
0.55322365054
0.424944958843
0.424536353746
0.42783280747
0.427373079178
0.554781476957
0.0915560467869
0.261748141533
0.262679937371
0.260026414385
0.260913896329
0.0908407995761
0
0
0
0
0
0
0
0
0
0
0
0
0
0
0
0
0
0
0
0
0
0
0
0
0
0
0
0
0
0
0
0
0
0
0
0
0
0
0
0
0
0
0
0
0
0
0
0
0
0
0
0
0
0
0
0
0
0
0
0
0
0
0
0
0
0
0
0
0
0
0
0
0
0
0
0
0
0
0
0
0
0
0
0
0
0
0
0
0
0
0
0
0
0
0
0
0
0
0
0
0
0
0
0
0
0
0
0
0
0
0
0
0
0
0
0
0
0
0
0
0
0
0
0
0
0
0
0
0
0
0
0
0
0
0
0
0
0
0
0
0
0
0
0
0
0
0
0
0
0
0
0
0
0
0
0
0
0
0
0
0
0
0
0
0
0
0
0
0
0
0
0
0
0
0
0
0
0
0
0
0
0
0
0
0
0
0
0
0
0
0
0
0
0
0
0
1.38777878078e-14
2.36943797916e-12
0
0
2.23239438046e-09
3.21712193774e-07
0
0
0.00395221493019
0.000136465638249
0.000164303189862
0
0.556365940908
0.561723015179
0.00429184266939
0.000155818041867
0
0.00406682701415
0.559407938032
0
0
0
0
0.559606114707
0.00419130690108
0
0
0.557820493897
0.102125814828
0.0988345019325
0.118257487299
0.114138259659
0.56071742309
0.107562464122
0.103594410445
0.558381748544
0
0
0.00142986406691
0
0
0
0
0.00458850532092
0.00682793893404
0.00190471866748
0.00384324157984
0
0.560341372444
0.11274384166
0.108783445756
0.556752817287
0.431201639034
0.43073162132
0.439146791312
0.438476937501
0.561349172933
0.434764867327
0.434235438317
0.55906973862
0.559816330742
0.435792081247
0.435270450133
0.432476460715
0.431851648155
0.557144447
0.100754380922
0.270432373917
0.271574812615
0.268549797019
0.269393764485
0.0995273484886
0.281621491848
0.282774994329
0.115537970587
0.561080405989
0.437884896249
0.437333970801
0.106284305643
0.275043945354
0.276100443311
0.272781924245
0.27393538877
0.104974950397
0.55880425619
0.433669941707
0.433101818225
0.436753340277
0.436277717411
0.560012482766
0.111434651197
0.279329539092
0.280457351839
0.277122634009
0.278201178622
0.110103250533
0.116926089988
0.283979501529
0.285186637945
0
0
0
0
0
0
0
0
0
0
0
0
0
0
0
0
0
0
0
0
0
0
0
0
0
0
0
0
0
0
0
0
0
0
0
0
0
0
0
0
0
0
0
0
0.000404824911769
0
0
0
0
0
0
0
0
0
0
0
0
0
0
0
0
0
0
0
0
0
0
0
0
0
0
0
0
0
0
0
0
0
0
0
0
0
0
0
0
0
0
0.00249806023589
0
0
0
0
0
0
0
0
0
0
0
0
0
0
0
0
0
0
0
0.00317274041551
0.00547506337196
0
0
0
0
0.00613199285111
0
0
0
0
5.51780843239e-14
3.2237545966e-12
0
0
4.36897185097e-09
3.97798663787e-07
0
0
0.00439814126383
0.000232610866075
0.000277658894539
0
0.562133753564
0.56748199504
0.00462835908615
0.564466088032
0
0
0
0
0.564783085986
0.00457435950729
0
0
0.563032223673
0.123788616387
0.119592243259
0.13856384403
0.134380677371
0.566168394638
0.127780910215
0.124941846681
0.563321938027
0
0.0169751841661
0.019696177058
0.565727144269
0.132713206051
0.12867579397
0.562577407656
0.440481378665
0.439849816097
0.448329440432
0.447769418612
0.567052769638
0.443095421625
0.442680085469
0.564085604084
0.564969504281
0.444052135214
0.443545323927
0.441512592825
0.441048481782
0.562806050051
0.13719907887
0.30102212276
0.30207990801
0.566724892499
0.447098946363
0.446286771459
0.563680197549
0.442257856662
0.441916422719
0.445438649453
0.444656791084
0.565185620305
0.0133849247796
0.0161456056314
0
0.131180226044
0.295763159914
0.297083821952
0.29363555786
0.294572400832
0.129798768901
0.298510386817
0.299813850058
0.135865678616
0
0
0.00448200695249
0.00759965008062
0.0101663326865
0
0.122375546075
0.28866361794
0.289673644201
0.286386031232
0.287547231182
0.120960458452
0
0.0109493370547
0.0128881185975
0.290572246275
0.291338413579
0.125982376898
0.126939778664
0.292101937363
0.292837036024
0
0
0
0
0
0
0
0
0
0
0
0
0
0
0
0
0
0
0
0
0
0
0
0
0
0
0
0
0
0
0
0
0
0
0
0
0
0
0
0
0
0
0
0
0
0
0
0
0
0
0
0
0
0
0
0
0
0
0
0
0
0
0
0
0
0
0
0
0
0
0
0
0
0
0
0
0
0
0
0
0
0
0
0
0
0
0
0
0
0
0.0082185475311
0
0
0
0
0.00916891641369
0.0117210532744
0
0
0
0
0.0123812700512
0.0142201938226
0
0
0
0
0.0150456525547
0.0177853580597
0
0
0
0
0.0188094521942
0
0
0
0
9.95870053089e-14
5.70243852138e-12
0
0
9.6172088071e-09
1.43505936023e-08
5.9628068827e-07
6.88207530963e-07
0
0
0
0
0.00468447151383
0.00460583819389
0.000379011365812
0.000433709667512
0
0.000544737118366
0.000615502346798
0
0.567999061263
0.57208469452
0.00472030301131
0.572262619381
0.574900918293
0.00424218633215
0
0
0.00470546240679
0
0
0.0044659367787
0.570102404165
0
0
0
0
0.570458643475
0.00471882669962
0
0
0.573732905534
0
0
0
0
0.573916741416
0.00436053774872
0
0
0.568950833005
0.14244565496
0.139764013143
0.156679468012
0.154556055705
0.571629100871
0.57283056451
0.160118205268
0.157412278627
0.172515913192
0.170133310994
0.574505782248
0.147219503294
0.143309988004
0.569280672244
0
0.0233993761828
0.0264821519498
0.0206235059635
0.022719377372
0
0
0.0312426216088
0.0336071610147
0.0275079856414
0.0304950990279
0
0.571453378474
0.153319942501
0.148765096484
0.164441297017
0.16126008041
0.572965710072
0
0.0376882776937
0.0400798898711
0.0343766724354
0.0369655751577
0
0
0.0442052970458
0.046286187089
0.0411185929374
0.0433681481617
0
0.574351447261
0.169127637294
0.165810480232
0.568367425776
0.449280388508
0.448827658411
0.456196908318
0.455931431787
0.571968641598
0.572465193408
0.456626310844
0.456449765933
0.461309760661
0.461078673064
0.574725926938
0.452003354546
0.451365349968
0.56984803775
0.570708005922
0.453380664132
0.452696805707
0.458919235259
0.458385480098
0.573500951114
0.574015462963
0.45983249911
0.459414626384
0.449989302053
0.449660718817
0.568694904149
0.141644046392
0.304507596975
0.305051293981
0.303033128287
0.303840903052
0.140737564881
0.156183669882
0.315950694614
0.316302570591
0.314569402303
0.315374868051
0.15546972365
0.571812879336
0.455581557569
0.455121594961
0.45731389262
0.456946724027
0.57265236429
0.158998359638
0.317591349109
0.318283618701
0.316727212688
0.31707950738
0.158338694407
0.171907907126
0.326275152098
0.326705003586
0.325390313189
0.325921618825
0.170842661895
0.574638371675
0.460923605742
0.460634815346
0.145716418947
0.30743772275
0.308609008726
0.30565564414
0.306456117114
0.144408778497
0.569664926086
0.450831441614
0.450366905289
0.454600473277
0.454029732492
0.571167836849
0.151824908554
0.312380062197
0.313559771074
0.309866726048
0.311148050228
0.150343822199
0.163539175095
0.32097862791
0.321784705937
0.318995979966
0.320048420881
0.162435320676
0.57321986142
0.45790724724
0.457616540949
0.460324458743
0.460122641926
0.57415913656
0.168577798834
0.324258661087
0.324660701088
0.322840175451
0.323843612099
0.167395973144
0
0
0
0
0
0
0
0
0
0
0
0
0
0
0
0
0
0
0
0
0
0
0
0
0
0
0
0
0
0
0
0
0
0
0
0
0
0
0
0
0
0
0
0
0
0
0
0
0
0
0
0
0
0
0
0
0
0
0
0
0
0
0
0
0
0
0
0
0
0
0
0
0
0
0
0
0
0
0
0
0
0
0
0
0
0
0
0
0
0
0.0211696623435
0
0
0
0
0.0219482334284
0.0244494271057
0
0
0
0
0.0254798040012
0.0285662069941
0
0
0
0
0.0296101630265
0.0319562845301
0
0
0
0
0.0327877939758
0.0351264163898
0
0
0
0
0.0359651603542
0.0384941116268
0
0
0
0
0.0391344108997
0.041792071102
0
0
0
0
0.0429438209182
0.0450055764817
0
0
0
0
0.0457195818202
0
0
0
0
0
0
0
0
0
0
0
0
0
0
0
0
0
0
0
0
0
0
0
0
0
0
0
0
0
0
0
0
0
0
0
0
0
0
0
0
0
2.35367281221e-13
3.08530978543e-13
6.66244837078e-12
9.08806363498e-12
0
0
0
0
2.51046042843e-08
8.41017460118e-07
0
0
0.0041876745944
0.000683864669316
0.000775911067147
0
0.575184564576
0.57928561375
0.00410436103978
0
0
0.00415029410753
0.576624474175
0
0
0
0
0.576817514319
0.00412201214952
0
0
0.575876359489
0.17684806359
0.17331335581
0.190003880615
0.186472177195
0.578253114955
0.180367993802
0.177809626449
0.57599428562
0
0.0496458382131
0.0521555246575
0.0468517487405
0.0490885889995
0
0
0.0568570941402
0.0589718731133
0.0532881486639
0.0560381032318
0
0.577875172623
0.185283120324
0.181776254808
0.575466652508
0.462175258084
0.46174177207
0.468895928278
0.468213587597
0.578949141215
0.464536752167
0.464179557034
0.576409592038
0.577031445202
0.46524366831
0.464908964855
0.463032544914
0.46262199363
0.575683023452
0.175637047801
0.32907536069
0.329944355773
0.327414421985
0.328211236573
0.17451051717
0.188843648155
0.33887638189
0.339903306805
0.336828467495
0.337833273862
0.187627133875
0.57858212179
0.467518145675
0.466858523068
0.179461512844
0.331996613283
0.332662935887
0.330716108915
0.33138883021
0.178694052014
0.576165149529
0.463823231675
0.463437940465
0.466245680371
0.465660391753
0.577415429463
0.183880073943
0.334980985972
0.335875981313
0.333365521868
0.334153953988
0.182919369735
0
0
0
0
0
0
0
0
0
0
0
0
0
0
0
0
0
0
0
0
0
0
0
0
0
0
0
0
0
0
0
0
0
0
0
0
0
0
0
0
0
0
0
0
0
0
0
0
0
0
0
0
0
0
0
0
0
0
0
0
0
0
0
0
0
0
0
0
0
0
0
0
0
0
0
0
0
0
0
0
0
0
0
0
0
0
0
0
0
0
0.0476816354305
0
0
0
0
0.0484178655164
0.0502165185832
0
0
0
0
0.0510348112677
0.0540770025075
0
0
0
0
0.055000813231
0.0575196890887
0
0
0
0
0.0582428862688
0
0
0
0
0
0
0
0
0
0
0
0
0
0
0
0
0
0
0
0
0
0
0
0
0
0
0
0
0
0
0
0
0
0
0
0
0
0
0
0
0
0
0
5.79869485762e-13
1.07809317029e-11
0
0
3.36585843641e-08
9.27667988204e-07
0
0
0.00409273928742
0.000830836219725
0.000927473313032
0
0.579731289191
0.582684182529
0.00406396017648
0
0
0.00407399304516
0.581823252667
0
0
0
0
0.582002447792
0.00406630647819
0
0
0.580795285992
0.193926872556
0.191546710767
0.202615824877
0.200988559722
0.582494976176
0.19780236335
0.194925655217
0.581103410624
0
0.0635404316867
0.0656189559892
0.0600329952092
0.0625453127254
0
0
0.0689072963188
0.0707078728047
0.0661301351703
0.068419123234
0
0.582454803565
0.200445819616
0.198546584077
0.58004879999
0.469960395016
0.469484509039
0.473738949767
0.473580216297
0.582584829129
0.472293982255
0.471845251318
0.581631268456
0.582230848896
0.473085602788
0.472723696583
0.470672221379
0.470350984552
0.580422001836
0.193185028661
0.342171891459
0.342657879357
0.340813968316
0.341537421299
0.192457940257
0.20203514504
0.347831527666
0.348168668286
0.347273682425
0.347484981726
0.2013859806
0.582534087417
0.473460157765
0.473423913679
0.197008611388
0.344808834456
0.345289184971
0.343243681127
0.344004682988
0.196052010775
0.581362097882
0.471422770005
0.471031494015
0.473338935796
0.473228094436
0.582397042439
0.19974763141
0.346778146535
0.34706971334
0.345774372327
0.346187908013
0.19925447454
0
0
0
0
0
0
0
0
0
0
0
0
0
0
0
0
0
0
0
0
0
0
0
0
0
0
0
0
0
0
0
0
0
0
0
0
0
0
0
0
0
0
0
0
0
0
0
0
0
0
0
0
0
0
0
0
0
0
0
0
0
0
0
0
0
0
0
0
0
0
0
0
0
0
0
0
0
0
0
0
0
0
0
0
0
0
0
0
0
0
0
0
0
0
0
0
0
0
0
0
0
0
0
0
0
0
0
0
0
0
0
0
0
0
0
0
0
0
0
0
0
0
0
0
0
0
0
0
0
0
0
0
0
0
0
0
0
0
0
0
0
0
0
0
0
0
0
0
0
0
0
0
0
0
0
0
0
0
0
0
0
0
0
0
0
0
0
0
0
0
0
0
0
0
0
0
0
0
0
0
0.0610117993246
0
0
0
0
0.061705458407
0.0643452236245
0
0
0
0
0.0650400774936
0.0669409343559
0
0
0
0
0.0676730304589
0.0694756199423
0
0
0
0
0.0701452436375
0
0
0
0
0
0
0
0
0
0
0
0
0
0
0
0
0
0
0
0
0
0
0
0
0
0
0
0
0
0
0
0
0
0
0
0
0
0
0
0
8.02802269106e-13
1.58828505903e-11
0
0
5.1413166835e-08
1.02189049689e-06
0
0
0.00406216066549
0.000982766740756
0.00107134903842
0
0.582820166481
0.585166921205
0.00402982780028
0
0
0.00405639010165
0.584033011307
0
0
0
0
0.584239178958
0.0040448202128
0
0
0.583289465519
0.205662324443
0.203179377312
0.21530807223
0.212959808249
0.584795391605
0.209374375171
0.206424990814
0.583484918365
0
0.0742973710718
0.0767980812529
0.071205931527
0.0733572681836
0
0
0.0799388141025
0.0826634945718
0.0776182598942
0.0794063625926
0
0.584623407302
0.212190402987
0.21030221564
0.582915288509
0.474129302536
0.473919256738
0.478674013789
0.478506050196
0.585071122813
0.476521128674
0.476084092559
0.583777501088
0.584413899483
0.477222127245
0.476913061428
0.474826765974
0.474470999142
0.583096497706
0.204744559362
0.349401870929
0.349925410121
0.34844084401
0.348889964604
0.20396956598
0.214419551456
0.356156401942
0.35662659009
0.35521770739
0.35563535986
0.213568538606
0.584937959986
0.478270430081
0.477927281789
0.208357331121
0.352266473798
0.352962942792
0.350739602077
0.351496318452
0.207385188451
0.583594229825
0.475648848895
0.475249594311
0.477742914506
0.477464839651
0.584524270253
0.211705400959
0.354322434999
0.354766525955
0.353583100982
0.354040189996
0.210986673824
0
0
0
0
0
0
0
0
0
0
0
0
0
0
0
0
0
0
0
0
0
0
0
0
0
0
0
0
0
0
0
0
0
0
0
0
0
0
0
0
0
0
0
0
0
0
0
0
0
0
0
0
0
0
0
0
0
0
0
0
0
0
0
0
0
0
0
0
0
0
0
0
0
0
0
0
0
0
0
0
0
0
0
0
0
0
0
0
0
0
0.0717971017258
0
0
0
0
0.0724120776345
0.0751046827564
0
0
0
0
0.0758302519781
0.0782947755792
0
0
0
0
0.0789173144671
0.0808580069563
0
0
0
0
0.0818207958918
0
0
0
0
0
0
0
0
0
0
0
0
0
0
0
0
0
0
0
0
0
0
0
0
0
0
0
0
0
0
0
0
0
0
0
0
0
0
1.7763568394e-15
0
9.92428361712e-13
1.90170101888e-11
0
0
6.39245008038e-08
1.09863493647e-06
0
0
0.00402114145036
0.00114496031897
0.00121172684484
0
0.585294998513
0.589385243075
0.00399869522298
0
0
0.00401295071022
0.587082818044
0
0
0
0
0.587393749381
0.00400913135534
0
0
0.586160891499
0.219015493553
0.216124935277
0.228229221994
0.226188642703
0.588572149291
0.222000563976
0.219894669694
0.586406503685
0
0.0867892911613
0.08861713202
0.0834433789233
0.0860902545016
0
0
0.0931540480293
0.094546407134
0.0896669335694
0.0922683950971
0
0.588214813172
0.225193310384
0.22269257115
0.585572483122
0.479482412886
0.478973979299
0.485282321125
0.484958888277
0.589150408497
0.481942098722
0.481535472945
0.586880185806
0.587689371513
0.48282845059
0.48237714049
0.480415453886
0.47997463607
0.585886829826
0.218078280057
0.358447989665
0.359203538305
0.357143371686
0.357830840072
0.217036355951
0.227628156112
0.365395250208
0.365869370788
0.364345415454
0.364927615613
0.226968219797
0.588880566726
0.484603329212
0.484180402548
0.221331571109
0.360745701833
0.361343788138
0.35988495183
0.360301268658
0.220589557212
0.586679844572
0.481164997988
0.480809582601
0.48373830731
0.48328208451
0.587888645512
0.224289684375
0.36317263571
0.363763281242
0.36199131685
0.3625761646
0.223652498113
0
0
0
0
0
0
0
0
0
0
0
0
0
0
0
0
0
0
0
0
0
0
0
0
0
0
0
0
0
0
0
0
0
0
0
0
0
0
0
0
0
0
0
0
0
0
0
0
0
0
0
0
0
0
0
0
0
0
0
0
0
0
0
0
0
0
0
0
0
0
0
0
0
0
0
0
0
0
0
0
0
0
0
0
0
0
0
0
0
0
0.0843483415302
0
0
0.000639983664047
0.000271052071788
0.0853083891347
0.0873474204168
0.00130777660897
0.000963849111941
0.00220979478603
0.00174599322128
0.0879002783336
0.090702295991
0.00295142244173
0.00262358818915
0.00377771224349
0.00332387184754
0.0914048999273
0.0937375400217
0.00438827447812
0.00416061704845
0.00517324191516
0.00470149059099
0.094149130316
0
0
0
0
0
0
0
0
0
0
0
0
0
0
0
0
0
0
0
0
0
0
0
0
0
0
0
0
0
0
0
0
0
0
0
0
0
0
0
0
1.41464617798e-12
2.20778950677e-11
0
0
9.95811205717e-08
1.19280872157e-06
1.20323490271e-06
0
0
0
0
0.00398305209478
0.00382271430416
0.00130557008763
0.0013805948424
0
0.00143684875166
0.00155800242013
0
0.589593979889
0.591274981889
0.00386558873612
0.591371571956
0.594510916494
0.00367886160811
0
0
0.0039508323876
0
0
0.00377571856749
0.590978301219
0
0
0
0
0.591014860423
0.00391091178198
0
0
0.592145063287
0
0
0
0
0.592315262766
0.00372774145638
0
0
0.59027579307
0.230728258879
0.228679752803
0.237201224204