/*--------------------------------*- C++ -*----------------------------------*\
  =========                 |
  \\      /  F ield         | OpenFOAM: The Open Source CFD Toolbox
   \\    /   O peration     | Website:  https://openfoam.org
    \\  /    A nd           | Version:  8
     \\/     M anipulation  |
\*---------------------------------------------------------------------------*/
FoamFile
{
    version     2.0;
    format      ascii;
    class       volScalarField;
    location    "2e-05";
    object      O2;
}
// * * * * * * * * * * * * * * * * * * * * * * * * * * * * * * * * * * * * * //

dimensions      [0 0 0 0 0 0 0];

internalField   nonuniform List<scalar> 
50271
(
1.01177390659e-54
1.01428867867e-50
3.16972147907e-47
1.35818402809e-43
8.43790291538e-40
5.80892107186e-36
2.52410512466e-32
5.68667384246e-29
9.94263513041e-26
7.21561005477e-23
0
4.5840665305e-22
5.92754862537e-19
1.24895165365e-18
0
0
0.00963237396786
0.0429830270715
0
0
3.42330595438e-12
7.0682194834e-16
0
7.52993845299e-19
1.16799679395e-17
0.0322380135535
1.50939591738e-10
9.20667249231e-17
3.06278119735e-08
3.93642894247e-10
0.03331788942
7.12303138226e-16
2.39089405691e-11
2.09890570848e-09
0.0220640923376
0
0
1.79269885047e-05
1.44123561689e-05
0.0396210233893
1.04224007537e-15
2.4713655096e-14
0
9.48937510002e-14
0
0
5.53589987323e-06
4.14443044036e-07
0.0258886177454
0
2.79681693516e-08
2.86570412829e-07
0
0
0
2.47303552927e-08
5.129108098e-07
5.70738703422e-07
3.01362038712e-07
3.85142851745e-07
1.53628788053e-08
0.037332923897
1.31369862225e-05
8.13118799225e-06
1.60796414215e-15
4.78085314428e-15
7.81688347019e-16
1.27831650982e-09
8.90033481512e-14
4.06994870528e-14
0
4.45549988712e-13
1.07799671483e-09
0.0148036835278
0
0
0.00407650805284
0.0038115524644
0.0423301242241
0.00160335835044
0.00119415738018
0.0305499543486
1.73259113184e-11
1.1930323578e-09
2.18518469423e-09
4.93855117061e-09
1.90681147358e-08
0
0.034563036889
0.00220989568095
0.00182686789835
0
4.19082007208e-12
4.39040724141e-12
0
0
0.0182219409819
0
0
0
0
0
0
1.67537052237e-05
0.000200138299809
0.000222103217043
0.000169432392648
0.000189046439155
1.57654745798e-05
0.0405118461785
0.00351631632052
0.00321274974157
1.26192724561e-13
1.0599401808e-14
5.64676428358e-15
3.59391294178e-06
6.00541177385e-05
7.89350549363e-05
1.1744302385e-05
2.57183833839e-05
1.26742730592e-06
0.0273459532592
0.000566912499574
0.000353624571639
6.9303601587e-08
5.58337431138e-09
6.5780232547e-10
2.75861090078e-08
1.04240121756e-08
1.69693613153e-07
0
0
0
0
0
0
0.00303221378629
0.00265929481882
0.0363907169993
1.17777375481e-05
0.000147733428979
0.000160617958618
0.000123147467157
0.000141402113553
1.01433675534e-05
0
1.5164926144e-11
4.27791855675e-10
9.20988714872e-14
1.2801562089e-12
0
1.59266293964e-11
4.86553953007e-11
2.42544943931e-12
3.63364145559e-51
2.75156247944e-47
1.05500443106e-43
3.93872558432e-40
1.78015771494e-36
1.02682124942e-32
4.18599817678e-29
1.18340732108e-25
3.12739454569e-22
3.01593703769e-19
1.17623348888e-16
6.91215269591e-15
1.01440432256e-11
3.29001307686e-13
5.08134632961e-13
1.51037227284e-14
0.0444932657125
0.0719838609385
2.31894783033e-11
1.18125164966e-09
1.28192585502e-09
1.87666028844e-11
0.0567291235774
3.99647966791e-08
3.54248390556e-08
4.74320280671e-08
4.20089993147e-08
0.0585109551598
2.18757876266e-11
1.34611380877e-09
1.39043098334e-09
0.0496863402398
2.20701430285e-05
1.87883643879e-05
4.29819365873e-05
3.5942290232e-05
0.0662830314349
2.74506067544e-05
2.29897144995e-05
0.0513112262061
3.88734833083e-08
7.25731377704e-07
8.26053079086e-07
6.39224140935e-07
6.9513042723e-07
3.73308042013e-08
4.59492337513e-08
1.08872800497e-06
1.16205385396e-06
8.64919573461e-07
9.92014080908e-07
4.32925202282e-08
0.064353451335
3.45547555152e-05
2.87154881915e-05
0.0463116096048
0.00459039638827
0.00433301745955
0.00843288179423
0.00806729045032
0.0698938643957
0.00609034175395
0.00587203674052
0.0548878812854
0.060452298477
0.00670474507188
0.00633242484474
0.00505841131105
0.00481435979303
0.0480931655043
2.0856869418e-05
0.000286273447455
0.000307446170844
0.00023429705749
0.00026573052338
1.99101775718e-05
4.01209856287e-05
0.000598466575475
0.000653165118949
0.000543250304265
0.00057468014748
3.8529872847e-05
0.0679761396709
0.00771069790316
0.00740443857303
2.61980324017e-05
0.000368210603912
0.000406117156047
0.000318925294322
0.000354726223906
2.48657797311e-05
0.0531193364926
0.0055810539316
0.00535825131358
0.0071940939071
0.00697269658632
0.0624134760089
3.17461596848e-05
0.000479152211288
0.000525426420371
0.000431309958006
0.000449724080941
3.03837181083e-05
1.91051969363e-48
7.92210131116e-45
3.82122830591e-41
1.49486696829e-37
7.45104858397e-34
2.23623371807e-30
3.79680387053e-27
6.82345114297e-24
5.40749007427e-21
3.31780313112e-18
3.24332077763e-16
1.89478797199e-14
2.30324001929e-14
2.39370529389e-11
3.14397606712e-11
5.43009418765e-13
5.55150861899e-13
2.26436422341e-14
5.8348772656e-13
5.95777540828e-13
2.31945391075e-14
0.0741324110423
0.104801955566
2.96487369361e-11
0.106959541571
0.134617965441
3.78645661277e-11
1.46878232673e-09
1.51978994705e-09
2.62493104983e-11
1.78697860901e-09
1.89476263975e-09
3.33789763507e-11
0.0878507559456
5.77566669898e-08
5.04949318101e-08
7.57301236659e-08
6.37346987378e-08
0.0898850424965
2.7925477638e-11
1.64887669976e-09
1.71780827637e-09
0.119691851767
1.04847012155e-07
8.05834258937e-08
1.5298991366e-07
1.11830951033e-07
0.121836461956
3.55412725489e-11
2.16360880394e-09
2.3335396262e-09
0.0800063779515
5.42247343744e-05
4.49117721217e-05
0.000105944645993
9.16979966224e-05
0.0984280592269
0.112526609584
0.000132423721415
0.000110433370087
0.000240980006738
0.000210348159617
0.12965573871
7.0138237563e-05
5.7569464253e-05
0.0820061145678
5.56191416422e-08
1.52559793786e-06
1.64738552024e-06
1.23799103844e-06
1.33432818244e-06
5.21705777308e-08
7.07001337106e-08
2.45382159633e-06
2.64010050405e-06
1.97131286863e-06
2.20082159817e-06
6.79913094186e-08
0.0964994677958
8.60192306694e-05
7.21951830613e-05
0.000162539212991
0.000138429606539
0.114520119426
9.50582064191e-08
3.62855630157e-06
4.27428809756e-06
3.04051542962e-06
3.4234301924e-06
9.09904785141e-08
1.32601177297e-07
6.86578904382e-06
9.89805932899e-06
4.77233430725e-06
6.21137698693e-06
1.24387550217e-07
0.127312877487
0.000199070498684
0.00016818129679
0.0759644653786
0.00911875844074
0.00879728233183
0.015536303547
0.0149122119745
0.102553357772
0.108516474544
0.0165681909097
0.0161235300152
0.0255563551347
0.0249562708178
0.133142063804
0.0114693268506
0.0111000559187
0.0859859514612
0.0921279212431
0.0123665897922
0.0118912461417
0.0201046461856
0.0193624137604
0.117636409361
0.123452071055
0.0213511545211
0.0208160138348
0.00985033268275
0.00946949350242
0.0779615886599
5.12251658732e-05
0.000777556953474
0.000804638173118
0.000691148814169
0.00072246440272
4.84072269411e-05
0.000102727588835
0.00140417520951
0.00144493023729
0.00124340700353
0.00134095550978
9.72382187568e-05
0.100264382663
0.0143230427324
0.0138766214125
0.017793517069
0.0171362093994
0.110497749324
0.000127555019002
0.00163007075068
0.00173462433224
0.00154348109238
0.00159422342856
0.000120504913241
0.000230662520232
0.00272839144869
0.00280722837407
0.00251462863192
0.00263059097552
0.000220561424157
0.131574588017
0.0242727701959
0.0235775509516
6.40189556507e-05
0.000936104284812
0.00100125913954
0.000855582125323
0.000901556128109
6.07474961475e-05
0.0839855885397
0.0106422396745
0.0102381047669
0.0133883395281
0.0129198219362
0.0945255489706
8.16471784766e-05
0.00114224453674
0.00120459993999
0.00103255257812
0.00111524412982
7.77601122111e-05
0.000159103776069
0.00194000692073
0.00207724196528
0.00186452961313
0.00191156743215
0.000146369544116
0.115810233145
0.0188037338057
0.018367718378
0.022721003356
0.0219767424385
0.125234061316
0.00019355768853
0.00235603049633
0.00244320114568
0.00218057683006
0.00226449785682
0.000184839309329
4.6116151958e-06
4.61175370523e-06
9.42802417215e-06
7.72403870247e-06
4.61111309594e-06
4.61753614319e-06
4.63524773543e-06
4.64202194361e-06
5.33202304699e-06
2.97906893928e-46
1.91221856921e-42
9.4667371989e-39
3.21602329358e-35
1.21935073712e-31
3.96237951946e-28
3.80418485366e-25
2.31325651975e-24
2.71028887295e-22
6.83147545304e-22
4.85716078197e-20
6.95689656317e-20
6.18961571535e-18
7.61328820457e-18
4.03520000439e-16
4.06771315486e-16
2.35364463815e-14
3.91380633203e-11
6.2218642255e-13
6.53541969643e-13
2.39842029489e-14
0.136575355901
0.163716315211
4.91313912729e-11
2.53040807727e-09
2.70002004718e-09
4.26885801842e-11
0.150539163164
2.07474378995e-07
1.65230067582e-07
2.65601025497e-07
2.24148291273e-07
0.152349129596
4.45385502461e-11
3.06236711353e-09
4.05257883519e-09
0.143194544439
0.00029362212041
0.00025104494853
0.00048264211046
0.000436083709007
0.158560261088
0.000350097074149
0.000305927009048
0.145124248355
1.92111626694e-07
1.63072703074e-05
2.00830923259e-05
1.07572844355e-05
1.54882639262e-05
1.7142395029e-07
2.57019533513e-07
2.85599564562e-05
3.4973217997e-05
2.22635584414e-05
2.710090789e-05
2.40601866081e-07
0.156980221223
0.000417918367421
0.000359208811067
0.13886500978
0.027236694956
0.0263526052833
0.0403542816462
0.0392907194872
0.162043573802
0.0327072365882
0.0318028211662
0.148742448005
0.154007252234
0.0346344413601
0.0337258274375
0.0292226484881
0.0282391824281
0.141062152946
0.000276198656005
0.00319032117078
0.00329501942237
0.00293653847322
0.00305280747268
0.000267038343134
0.000464645093543
0.0049589411168
0.00513773228793
0.00462964209375
0.00476176527174
0.00045427592375
0.160305833332
0.0381383482117
0.0371690012009
0.000334743435527
0.00374059594869
0.00389426652016
0.00348821116622
0.00366565626222
0.000320087642077
0.1469684397
0.0309538842496
0.0301283740407
0.0362546839528
0.0355068560425
0.155547996175
0.000387208483109
0.00434662391972
0.00447695513753
0.0039781831519
0.00415128761272
0.000375316605671
5.20904515394e-06
5.14637088472e-06
2.60804375982e-05
2.99193442984e-05
5.38515754801e-06
5.30154370757e-06
5.68128564785e-06
5.52400648322e-06
3.26537029194e-05
2.44751454741e-05
5.0447623321e-06
4.96707745709e-06
4.86994444687e-06
4.81395740632e-06
1.89666124421e-05
1.70755855051e-05
4.78430673279e-06
4.71451840284e-06
4.68641069747e-06
4.64181664769e-06
1.30147585667e-05
1.15893695696e-05
4.62624894854e-06
4.61667761737e-06
4.59687907497e-44
1.25336141332e-40
1.12694483855e-38
5.65711579986e-37
2.9716981218e-35
1.05731888126e-33
3.69807831406e-32
3.51145108119e-30
4.81123907617e-29
4.71169662243e-27
3.11603399213e-26
1.00479547824e-23
1.09482827302e-21
8.51215373954e-20
8.51620054394e-18
4.12103081602e-16
2.4160757221e-14
6.17868202892e-11
7.00592661808e-13
8.34093400067e-13
2.46495195281e-14
0.165116144011
0.183364537478
8.32932102588e-11
4.35249705424e-09
4.92210887532e-09
6.6734092833e-11
0.174122927042
3.40803033086e-07
2.85885418694e-07
4.1830898417e-07
3.54113236634e-07
0.175232154668
7.52330194172e-11
5.63834129261e-09
6.19416335928e-09
0.168820678896
0.000571438375009
0.000504461851615
0.000897717800221
0.000812012559508
0.18026201116
0.000673480849954
0.000596198995378
0.170288836209
3.22197203427e-07
4.47551122754e-05
5.24507779056e-05
3.75328769564e-05
4.29162359683e-05
2.95750954625e-07
4.0453738376e-07
6.66798817203e-05
7.68228157553e-05
5.55691187796e-05
6.43981686688e-05
3.69201422374e-07
0.179133621299
0.000790291369152
0.000688756130029
0.166343136731
0.0422145516634
0.0414215313975
0.0560376276405
0.0551070837668
0.182305989063
0.0479287035061
0.0471183672727
0.173050380062
0.176483470131
0.0498705498958
0.0488421049912
0.0439072970573
0.0430799086102
0.167494761696
0.000547085694563
0.00572980346394
0.00588180113488
0.0053620657092
0.00553149183923
0.000523760214006
0.000876438342198
0.00824710346307
0.00844663983689
0.00783387877436
0.00801794910891
0.000842217051018
0.181287980719
0.0541680734201
0.0533125282988
0.000647140667447
0.00648640421767
0.00665029373745
0.00608741522907
0.00627271680696
0.000621351289982
0.171779294791
0.0460662744534
0.0450045975636
0.0522543139682
0.051126194291
0.177844627527
0.000762803011814
0.00734788907631
0.00758664373772
0.0068554836049
0.00707030425805
0.000722710473464
3.90121341802e-05
5.98743766757e-06
5.84901798166e-06
6.20014762291e-06
6.08174850458e-06
4.09000933565e-05
4.63797299105e-05
6.46188594872e-06
6.29889236059e-06
6.88239678871e-06
6.60757551586e-06
4.92306000076e-05
5.83506568128e-05
7.36390342314e-06
7.04847516263e-06
7.93786779988e-06
7.61698937154e-06
6.13471371381e-05
6.98053398069e-05
8.31841052815e-06
8.15823502137e-06
8.80680054462e-06
8.56211372674e-06
7.28067898465e-05
3.76064536563e-42
1.16674839653e-40
1.9256549013e-37
2.91880011372e-34
3.13435628826e-31
2.36647926662e-28
1.12542294519e-25
1.62385779641e-23
1.34285924464e-21
9.47287375156e-20
8.80361199039e-18
4.25192064099e-16
2.55566573024e-14
9.39480282746e-11
9.33784924077e-13
1.01513397598e-12
2.6143509454e-14
0.184448683857
0.196939408391
1.22700919936e-10
7.1424629085e-09
7.7762374225e-09
1.04013343459e-10
0.190489622293
5.12568384682e-07
4.34199934192e-07
6.69746758154e-07
5.64349570333e-07
0.191304508276
1.09905730803e-10
8.57611065711e-09
9.83653254445e-09
0.18720842346
0.00103819524136
0.000932362732836
0.00158922632689
0.00141251738764
0.194443197979
0.00121356411188
0.00109136196953
0.188033143964
4.92975673026e-07
9.50876987764e-05
0.000108664660169
8.05340959851e-05
9.30885012414e-05
4.75647963272e-07
6.12293785949e-07
0.000133922418173
0.000151838548775
0.00011398002951
0.000129650525335
5.86657402285e-07
0.193665649738
0.00137510524746
0.00124032127038
0.185471369233
0.0581480726993
0.0571426631171
0.072618091347
0.071542086496
0.196184024131
0.0640249332447
0.0630640822597
0.189678741841
0.192085377208
0.0659664303999
0.0650739548315
0.0600981544109
0.0592081744081
0.186382084862
0.0010212470485
0.00921826553405
0.00943258977156
0.00871657081847
0.00893991445462
0.000995609161576
0.0015383977453
0.0125396728033
0.0128582051615
0.0118215546776
0.0121445345727
0.00144520572091
0.195313165508
0.0701769232266
0.0689954909554
0.00117285863602
0.0102239032865
0.0104674176699
0.00970542084485
0.00993373387594
0.00113238755798
0.188820897384
0.0620174006123
0.0610844586058
0.0678744828963
0.0669448706166
0.192848935363
0.00134576433899
0.0112634164102
0.0115076776867
0.010757431574
0.0109948517184
0.0012705368571
8.40365675815e-05
9.41937338248e-06
9.08787127067e-06
1.00691657322e-05
9.7288313475e-06
8.87426417296e-05
9.95229455864e-05
1.07118127145e-05
1.03489418491e-05
1.14471825219e-05
1.10775308177e-05
0.000102929346874
0.000118749704439
1.23430340634e-05
1.1877863531e-05
1.3301684611e-05
1.28096376397e-05
0.00012418106893
0.000139769647391
1.42944685435e-05
1.36697368688e-05
1.56250048479e-05
1.49243488611e-05
0.000146572892297
1.91077176547e-38
1.94604952977e-35
1.16644527542e-32
4.95184246406e-30
1.24138067248e-27
2.25438912043e-25
2.01819431383e-23
1.71470719179e-21
1.01386193129e-19
9.40510470764e-18
4.55143585607e-16
2.71526483911e-14
1.29899963506e-10
1.07941199402e-12
1.25778416169e-12
2.79727683023e-14
0.197413932476
0.205385194746
1.73423694737e-10
1.0559429918e-08
1.20223977683e-08
1.45185502095e-10
0.201467058925
8.34397928393e-07
6.93253604022e-07
1.10020465778e-06
9.24277911565e-07
0.201640154988
1.541391127e-10
1.3036271087e-08
1.51760281104e-08
0.199154878545
0.00179732594703
0.00165115833191
0.00254200214266
0.00234642473461
0.204014185411
0.00202840004901
0.0018241265078
0.199914784481
7.98475479676e-07
0.000182536240801
0.000205681023631
0.000158650977522
0.000174858469384
7.65851937762e-07
1.04780790823e-06
0.000243726098957
0.000275204113921
0.000212935344127
0.000231800640945
9.53681245131e-07
0.203316281312
0.00228200477501
0.002066344262
0.197935986855
0.0742751322445
0.0735110723931
0.0877224756319
0.0870172226971
0.205078176176
0.0797154185319
0.0791660300699
0.201215545325
0.201982677898
0.0815430220255
0.0805465837348
0.0763344902646
0.0752889791912
0.198436280341
0.00175686853903
0.0137384839104
0.0140661845152
0.0131549017968
0.0134032488395
0.00167433237664
0.00245284974435
0.0177047905901
0.0179716438717
0.0170459513055
0.0173865060368
0.0024110568878
0.204618368659
0.0861810330307
0.0852034425683
0.00197315747201
0.0149725328314
0.0151556278219
0.0144361422532
0.0147111173474
0.00191069005162
0.200793159279
0.0784051022624
0.0775032318052
0.0840149547277
0.0828174630269
0.202639446567
0.00221684339139
0.0162237574582
0.0166282409451
0.0154502401161
0.0157824854015
0.00210023977964
0.000164957571742
1.68968616382e-05
1.6234460074e-05
1.83025877142e-05
1.75631329022e-05
0.00017069153846
0.000188382699842
1.9769281048e-05
1.90755713135e-05
2.10862588856e-05
2.05447814564e-05
0.000199840714472
0.000220194643735
2.24162149248e-05
2.17223711723e-05
2.38706759148e-05
2.32966224382e-05
0.000227316268178
0.000249078078666
2.55096379535e-05
2.45656904537e-05
2.78119963734e-05
2.64105554962e-05
0.000264288284309
1.11060607941e-37
8.53408514182e-35
3.69175433532e-32
1.55078523158e-29
2.56422503174e-27
3.07701756446e-25
2.84115945024e-23
1.86204845465e-21
1.09375115329e-19
9.65165007325e-18
4.71382895503e-16
2.85482401153e-14
1.84722767261e-10
2.69183326777e-10
1.34909865336e-12
1.60500600861e-12
3.00470621922e-14
0.205665492717
0.211178234625
2.51790500412e-10
0.211534613801
0.215165925923
3.7491592244e-10
1.63882246596e-08
1.8641684825e-08
2.08563315808e-10
2.53901095861e-08
2.93734197175e-08
3.05978941255e-10
0.208970841837
1.41333610668e-06
1.14567830918e-06
1.86155797069e-06
1.54238830652e-06
0.209046169184
2.22173220746e-10
2.00479793402e-08
2.39179409508e-08
0.213294364257
2.51398681457e-06
2.01350965214e-06
3.34804665593e-06
2.78059851778e-06
0.213475612402
3.28158564121e-10
3.23358814613e-08
3.84535789542e-08
0.207126833649
0.00278174615576
0.00258192365674
0.00376669438709
0.00351696215686
0.209968224585
0.212430839089
0.00413889758036
0.00387536493054
0.00543881766765
0.00508732992595
0.21436125364
0.00310377182736
0.00287223937865
0.207823523809
0.000281812294921
0.000313354555295
1.2191481013e-06
1.76498156714e-06
0.000420565789129
0.000452592462259
0.209498476168
0.00340533212216
0.0031815597911
0.0045433139422
0.00424200915448
0.212664959004
2.40369699521e-06
0.000532112813109
0.000582023474167
0.000473626734905
0.000504579851453
2.19469275048e-06
3.07289905275e-06
0.000661569340259
0.000713340439895
0.000596079500974
0.000645545498931
2.96755742319e-06
0.214095333243
0.00495480690808
0.00465301962268
0.20595957173
0.0893808205666
0.088478736059
0.102963606251
0.102112405425
0.210820032625
0.211854335796
0.104835157426
0.103949051322
0.11734034221
0.116321457218
0.214897014111
0.0958482202353
0.0952820666476
0.208816436115
0.209092240079
0.0970116546168
0.0963938272562
0.110085352152
0.109294018846
0.213102075789
0.213654228385
0.111592705891
0.110875090692
0.0918650503074
0.0905610530069
0.206469932527
0.0182837343844
0.018628851525
0.00262526111428
0.00370331726179
0.0240808106384
0.0244437955163
0.0231636371783
0.0236005407272
0.00358916172337
0.210402838242
0.101073280522
0.100077724033
0.106669560716
0.105844212831
0.212175061755
0.00405668644867
0.0257813490488
0.0261789011163
0.0248936403957
0.0252907768664
0.00394594980657
0.00532148090561
0.0313467561584
0.031912107568
0.0302697281841
0.0307530115947
0.00518210875971
0.214625254252
0.115253863536
0.114314536568
0.208432253175
0.0943934364482
0.0932400891066
0.0989212734799
0.0979266929571
0.209180882237
0.00445193715771
0.0275740264307
0.0279864158309
0.0266402780246
0.0270716350477
0.00433823427302
0.212884334659
0.108389141281
0.107547709042
0.11331993876
0.112449209824
0.213857620838
0.00485786394509
0.0292693834629
0.0297302978119
0.0284226191898
0.0287948567763
0.00473712100358
0.00270563654593
0.0190828832079
0.0195728410459
1.31271720761e-06
0.000319319527916
0.000359949386602
0.020112554705
0.0205654655364
0.00295231627295
0.00303693298684
0.0209496539166
0.0212000760796
0.000367692380287
0.000408931809828
1.60975155618e-06
0.0214682921429
0.0217593691295
0.00323620636561
0.00333273318229
0.022201548284
0.0226371125573
0.000296732989299
2.98213635571e-05
2.87498875366e-05
3.2253408837e-05
3.09611455893e-05
0.000306084724913
0.000341013574934
3.46704915668e-05
3.30703843977e-05
3.8225150434e-05
3.64731084419e-05
0.000351920431063
0.000382122413237
4.05376028416e-05
3.90475748566e-05
4.25724680231e-05
4.12641274672e-05
0.000389589564407
0.000432773754507
4.65838866949e-05
4.44134655678e-05
4.96940979504e-05
4.83846167822e-05
0.000445751240705
0.000484221338037
5.26300985656e-05
5.11749310692e-05
5.6945990894e-05
5.48502818744e-05
0.000495510712863
0.000540988019281
6.09542559697e-05
5.9106455582e-05
6.53782228504e-05
6.32965547146e-05
0.000555626801472
0.00060546632183
6.84580401256e-05
6.72259075854e-05
7.33278494733e-05
7.11528046995e-05
0.000620262544911
0.000670605780201
7.85945382294e-05
7.49336845274e-05
8.36487619699e-05
8.10621405572e-05
0.000701484257968
1.5905097225e-36
4.84739863131e-34
1.76127820827e-31
2.97848953537e-29
3.35642656904e-27
3.89300441193e-25
3.07474000198e-23
2.0568398794e-21
2.21147306451e-21
1.12384115172e-19
1.20743168382e-19
1.01331838883e-17
1.03943852713e-17
5.07409989573e-16
5.22754412788e-16
3.07321718582e-14
3.27050932884e-14
4.0334488548e-10
1.7690946519e-12
1.93304583645e-12
3.19607981717e-14
2.19197468338e-12
2.74094670499e-12
3.45068283054e-14
0.215420285904
0.217413314771
5.83410056445e-10
4.22429969102e-08
4.98466401212e-08
4.62305589041e-10
0.216223084959
4.2168450551e-06
3.48420671039e-06
5.7174727874e-06
4.73424829744e-06
0.216300514137
5.03583297989e-10
5.54106826133e-08
6.73796268229e-08
0.215882092405
0.00592758850221
0.00559396573422
0.00758428688714
0.00708204961137
0.216983267337
0.00637798073163
0.00605465504276
0.215986073877
4.02052014918e-06
0.000814377953925
0.000879718349601
0.000735725224697
0.00078631081148
3.66587943604e-06
5.44167001199e-06
0.001003977386
0.00108026678765
0.00090278757502
0.000977257688406
4.90849139692e-06
0.216750626706
0.00689473862941
0.006496798008
0.215613034895
0.1191800816
0.118370608613
0.12996153889
0.129330578043
0.217341391451
0.123103824549
0.122563133085
0.21615340892
0.216375463943
0.124406567078
0.123742968309
0.120566926713
0.11993308868
0.215770645423
0.00583632062487
0.0334490198938
0.0338220191219
0.0325239987998
0.032991253323
0.00570979921887
0.00746072501362
0.0395776607626
0.0400046903318
0.0382594305705
0.0389581923544
0.00727641238322
0.217192256557
0.12847156955
0.127467163489
0.00629192749936
0.035153876601
0.0354873820854
0.0342886138448
0.034700259364
0.00615775197993
0.21606636122
0.121902169122
0.121277512322
0.126331794531
0.125307145291
0.216523349423
0.00673992647392
0.0368507495078
0.0374927362458
0.0358890166072
0.036278767961
0.00660032702308
0.000752175350502
8.96984488634e-05
8.84256086713e-05
9.45375945972e-05
9.30716562875e-05
0.000770631213981
0.000831161241833
0.000100279762304
9.8006070797e-05
0.000106123712878
0.000103568723878
0.000857742376445
0.000920474435167
0.000112376622797
0.000108963847851
0.000119713318563
0.000117517887057
0.000933753293074
0.00102254682314
0.000128315603133
0.000123632729457
0.000136210599712
0.000131695340111
0.00104570385391
1.56660241215e-36
1.65953885004e-33
3.20148534161e-31
4.02565651872e-31
3.81489970525e-29
4.61960272976e-29
4.24198295776e-27
5.08694455439e-27
5.04509690592e-25
5.25680693983e-25
3.59906059785e-23
3.81230523902e-23
2.4090751734e-21
1.25824698598e-19
1.06901014415e-17
5.47126200105e-16
3.59139182578e-14
6.37516429271e-10
3.74953976881e-12
4.40600943207e-12
4.01650084791e-14
0.217475044534
0.218571987839
1.08176126858e-09
7.50591749729e-08
9.14103878966e-08
7.67307469346e-10
0.217907449723
7.5023849738e-06
5.94228400163e-06
9.70192050115e-06
7.97107131161e-06
0.217942719983
8.83269871224e-10
1.0435129479e-07
1.26565951599e-07
0.217664156323
0.00807210308259
0.00769874284582
0.010120592324
0.00952100305625
0.218234816756
0.0087726465422
0.00826373985048
0.217733750617
7.17783604203e-06
0.00121333432377
0.0012955030387
0.00109235622037
0.00116868613994
6.28149945094e-06
9.00527707004e-06
0.00146838759141
0.00154876432257
0.00134116934375
0.00143559765388
8.60700957155e-06
0.218126363567
0.00929677775317
0.0088748666027
0.21754283819
0.131092387584
0.130556392122
0.140932626472
0.140193592521
0.218484264625
0.135198296065
0.134617797482
0.217861472249
0.217994952793
0.136333226036
0.13576151045
0.132409014817
0.131728706816
0.217609412879
0.00792483473988
0.0412348056948
0.0417579029693
0.0404028964357
0.0407701715736
0.00779077845213
0.00993953275003
0.047861194738
0.0484597990478
0.0465223239196
0.047183974577
0.00972345324593
0.218360812574
0.139355885494
0.138549347182
0.00863695679446
0.0434840052245
0.0439120400363
0.0423680259056
0.042959511429
0.00845652247883
0.217787138389
0.133940472308
0.133199073626
0.137735533098
0.137010250794
0.218050820516
0.00911520606513
0.04523619921
0.0458392292944
0.044296660265
0.0447070740871
0.00896962390674
0.00112287550689
0.000143112709164
0.000139472112989
0.000150267550702
0.00014847492773
0.00115757461154
0.00124603381001
0.000160400788314
0.000155313707247
0.000169710222227
0.000164846474489
0.00127764431443
0.00135723314933
0.000180483560553
0.000175569897069
0.00018982208345
0.000185390542083
0.00137607578633
0.00149161554789
0.00019867001131
0.000192797118114
0.000208991440024
0.000202144886119
0.00151968515405
7.22509671394e-36
1.22623275585e-35
1.50348153017e-36
1.5400954471e-36
1.58307923271e-36
1.58843990251e-36
1.48499220808e-36
1.33962329775e-36
1.66960161086e-33
1.66495067035e-33
6.16431694752e-31
5.13530013817e-29
6.16059688023e-27
5.73268274969e-25
4.03299947315e-23
2.55817023761e-21
1.33045506271e-19
1.11724617509e-17
5.81972354941e-16
4.75054626983e-14
1.19159600537e-09
5.60721928095e-12
8.22550187095e-12
5.38910139546e-14
0.21863641821
0.218730284711
1.9037633947e-09
1.39918243363e-07
1.6430934285e-07
1.42108805409e-09
0.218625349655
1.2677778566e-05
1.04542191581e-05
1.53895986164e-05
1.29548598941e-05
0.218637746402
1.56606127452e-09
1.78354224643e-07
2.0966729809e-07
0.21869132002
0.0107215336116
0.0102983802585
0.012942778881
0.0122206361849
0.218689101981
0.0115082229214
0.0108674282855
0.218675063804
1.19967697531e-05
0.00173799877879
0.00185365108567
0.00159232587001
0.00169288238592
1.08453711023e-05
1.42369695982e-05
0.00204955690989
0.00217417041822
0.00188677336107
0.00198529392251
1.36748601995e-05
0.218680195092
0.0120554589383
0.011720780618
0.218671595543
0.142273269957
0.141658199442
0.149843285084
0.149272906242
0.218724837666
0.145224684105
0.144732916356
0.218632733222
0.218658572597
0.146351565244
0.145834015432
0.143338964591
0.142838969999
0.218689210729
0.0105669043308
0.0499878126496
0.0503980225149
0.0490446736053
0.049530335213
0.0104271058036
0.0128301302441
0.0560312134242
0.0566585266558
0.0547066185332
0.0553608561145
0.0124915754458
0.218708473943
0.148615591387
0.147951143502
0.0112809702229
0.051933900623
0.0524315418571
0.0508678750003
0.0513483483469
0.011054871099
0.218653760677
0.144285115635
0.14381892777
0.147360830973
0.146843851203
0.21867331098
0.0119564342685
0.0538249522082
0.0542632381798
0.0529349693554
0.0533621892735
0.0118611688174
0.00161323934804
0.000222492396545
0.000215578708435
0.000235154087882
0.000228537914088
0.00166991244211
0.00176130769798
0.000244433138638
0.00023980209894
0.000256757800119
0.000249372089256
0.00181271309013
0.00190759882583
0.000269108055641
0.00026286179399
0.000285487256744
0.000275922829342
0.00196129906958
0.00207105416375
0.000299296407301
0.000291239731135
0.0003132751155
0.000305537528517
0.00213484154483
4.49562437585e-35
5.95703197806e-35
1.37972155965e-36
1.34325153211e-36
2.07679041251e-36
2.31921988576e-36
1.36226172839e-36
1.6395042672e-36
1.68939580625e-36
1.91311614104e-35
3.81393649672e-35
1.34175826143e-36
1.86861235579e-36
2.04157334095e-36
1.33937637347e-36
6.88901010018e-33
9.10183491852e-33
1.68099348902e-33
1.14296759083e-35
1.10855368194e-35
5.55523185775e-35
1.37382359256e-36
1.64111413868e-36
1.65973716899e-36
1.58400892983e-36
1.62564947986e-36
1.35594619514e-36
1.78422837472e-36
1.76324445934e-36
2.26836311721e-36
1.60723835509e-36
1.62319082506e-36
1.36581984043e-36
1.6701778019e-36
1.66149400264e-36
1.67039648461e-36
1.6559224396e-36
1.63630723761e-36
1.6244865499e-36
1.34860973533e-36
1.58404491977e-36
1.59664331154e-36
1.55426888851e-36
1.56782561753e-36
1.3456067113e-36
2.187587708e-36
1.72743901967e-36
1.69728810936e-36
1.33607986332e-36
1.53654004394e-36
1.57291062796e-36
1.5935830858e-36
1.58504721092e-36
1.57422468419e-36
1.60941831213e-36
1.59514196342e-36
1.61030596087e-36
1.49813442349e-36
1.52676885322e-36
1.33582269374e-36
5.12423721535e-35
1.09696458712e-35
1.08458025665e-35
1.39023083162e-36
1.70444166518e-36
1.81809993786e-36
1.67665347016e-36
1.6535868705e-36
1.96555645706e-36
1.33769706413e-36
1.53346731575e-36
1.54477470395e-36
1.51184725625e-36
1.52368356035e-36
1.33665600548e-36
1.55727504262e-36
1.54308313882e-36
1.55762494362e-36
1.54334567779e-36
1.53206423428e-36
1.5233991975e-36
1.33614968548e-36
1.4971186418e-36
1.5037411306e-36
1.48318709411e-36
1.49301843921e-36
1.33743753817e-36
1.35593316118e-36
1.47941760009e-36
1.49192354549e-36
1.90031139345e-36
1.63275286549e-36
1.61044479691e-36
1.514458759e-36
1.50829086541e-36
1.51440170643e-36
1.34444168717e-36
1.47108243672e-36
1.47529929409e-36
1.50847272116e-36
1.50102224399e-36
1.49301815783e-36
1.58597911458e-36
1.66448546463e-36
1.40156188671e-36
3.67556595541e-33
4.37184895857e-33
1.66524339313e-33
1.08376642046e-35
1.09266330107e-35
3.17847248407e-35
1.4715314217e-36
1.4762002025e-36
1.36050664132e-36
1.5949434994e-36
1.58564442435e-36
1.78574444526e-36
1.4628337717e-36
1.46601359597e-36
1.34978891449e-36
1.48689476136e-36
1.48119665151e-36
1.4885611625e-36
1.48324272982e-36
1.47681119562e-36
1.47173827165e-36
1.36701251698e-36
1.46035491727e-36
1.46155606907e-36
1.4603474837e-36
1.45999569984e-36