/*--------------------------------*- C++ -*----------------------------------*\
  =========                 |
  \\      /  F ield         | OpenFOAM: The Open Source CFD Toolbox
   \\    /   O peration     | Website:  https://openfoam.org
    \\  /    A nd           | Version:  8
     \\/     M anipulation  |
\*---------------------------------------------------------------------------*/
FoamFile
{
    version     2.0;
    format      ascii;
    class       volScalarField;
    location    "2e-05";
    object      p;
}
// * * * * * * * * * * * * * * * * * * * * * * * * * * * * * * * * * * * * * //

dimensions      [1 -1 -2 0 0 0 0];

internalField   nonuniform List<scalar> 
50271
(
101325.000093
101325.00032
101325.001299
101325.005321
101325.021899
101325.090251
101325.372071
101326.537032
101331.353509
101351.193362
101432.384169
101373.565467
101423.049809
101544.694232
108023.23041
102037.032152
158286.960816
116018.078751
111509.579889
101731.047972
111673.061629
102598.055644
104074.949493
102284.202387
103196.981099
122626.103975
116652.989678
101456.362921
104411.648637
116310.026002
122955.179257
104214.20064
115845.236602
106724.75438
135079.250092
122325.860168
102257.905341
101448.623122
103370.391112
117584.952896
110462.961954
113259.748171
111954.348408
106049.913331
103320.578606
105287.078099
110519.310687
121322.288306
127575.811435
111711.721722
120074.797611
113748.933357
101553.604948
118176.657268
103756.327062
106389.264274
103975.618425
102746.844026
110664.553176
106141.29003
110341.300516
119821.378974
103812.754883
108302.75075
106281.414907
110810.207487
106726.659844
112209.220838
113724.34147
111279.238834
110098.807049
113585.609565
110244.821236
158245.565457
129604.482378
115912.10131
104207.710598
104769.877172
115916.295751
107733.955127
109877.111825
122483.887308
115401.157772
117801.458826
117477.027379
115573.917277
113169.417894
115282.920534
121836.684927
106436.97412
106812.712213
115521.001816
114731.615039
113965.277164
123342.196435
128395.300331
148366.499172
117823.200481
123257.405208
122663.863798
105195.9841
117729.081352
107951.052659
102184.669195
102429.650547
101644.446079
103462.384061
103144.893337
102940.399287
117189.325224
105423.74261
105881.051347
113229.938477
112916.151236
112194.49392
114157.194912
110351.793486
107301.66366
119612.400833
115018.556404
118344.66548
125343.664387
113245.395239
117640.421999
119350.458173
119110.580534
116437.163297
117166.599925
118651.088022
117534.747049
103711.828917
102122.789509
101384.493199
110824.729395
104812.587525
109980.345095
106066.661161
106001.019334
120307.363329
104269.956501
103706.546299
103747.242809
105542.309743
104374.510149
105402.128417
113900.111511
114575.066577
113999.084611
113255.548469
114368.874678
114204.510027
113157.863157
111861.056212
113089.499375
101325.022782
101325.058059
101325.189189
101325.612015
101326.988976
101331.450241
101345.854608
101391.977407
101538.854976
102006.224083
103389.317517
104948.245544
108907.877804
107268.211547
105498.768594
105495.48408
115332.260344
109637.124771
102147.970813
104999.003177
102586.857488
105830.110421
111964.398456
101388.569832
103308.361931
100777.274119
101076.87608
111593.946203
103573.146101
101330.940363
101139.883954
113636.932387
101140.277258
101128.692665
100718.813281
100831.178641
110244.290525
100862.344059
101081.568551
113063.125611
101659.195004
101155.681192
101195.188887
102021.685982
101602.93805
102064.061015
100767.330618
100843.997586
100874.818471
101094.975713
100979.256354
100883.505283
110662.443624
100979.951982
100920.320904
114622.748559
103764.15163
103921.642576
102673.212114
102800.028012
109811.888125
103420.401691
103544.972245
112328.040413
111543.63201
103526.807356
103375.047229
104058.815042
103875.994382
114166.719361
101094.895044
101431.134149
101618.842248
101392.058367
101297.72484
101078.776541
100691.447431
101602.078204
101662.199438
101723.320144
101575.42637
100703.427632
110085.808406
102972.692979
103191.963153
100862.418296
101459.31008
101481.009994
101631.062282
101499.617117
100878.611432
112554.550613
103709.491223
103840.612758
103308.992261
103481.666242
111215.288585
101007.543548
101804.782026
101811.506692
101561.92164
101737.362119
101005.160154
101325.28593
101325.614643
101326.851576
101330.405288
101340.718112
101369.999471
101451.196378
101670.861999
102235.972093
103274.888027
103984.503277
104680.328338
102266.143798
101577.409383
100964.071474
103180.513288
101681.699051
103478.222321
101102.509756
101138.72746
101522.347692
109411.963564
107775.255379
100931.066893
107678.994806
106378.526139
101172.60541
101042.938028
100916.291603
101009.789504
100988.020372
101104.632612
101030.738457
108530.792226
100737.561575
100774.017283
100894.046943
100749.237363
108508.955473
100878.956451
100817.685318
100878.939689
107481.436905
101265.853867
101014.243804
101281.752324
101276.367852
107303.297594
101141.338103
101175.882048
101174.879928
108587.644285
100728.098335
100780.297461
101118.549634
100994.564898
108077.014447
107513.041092
101180.664412
101132.089476
101545.153698
101345.326182
106996.324163
100775.433383
100731.74419
108631.37366
100763.108439
100905.092304
100907.443941
100902.804215
100884.833678
100745.477271
100811.822748
101026.937741
101131.762453
100941.069259
100975.821348
100751.504713
108286.753492
100974.339632
100826.058484
101200.871551
101188.093483
107405.868176
101186.148975
101245.350914
101250.986253
101199.587885
101249.65951
101138.516588
101261.309869
101264.160602
101313.428194
101207.982899
101277.186225
101308.057451
107014.365723
101273.897285
101196.26627
109106.677662
102491.404309
102595.038833
102252.707929
102224.987778
107838.89099
107620.927673
102211.726661
102295.771125
102502.127767
102436.190187
106595.721522
102125.202938
102047.517634
108552.489359
108446.601566
102281.428688
102203.172626
101879.494361
101897.769957
107489.025187
107273.220019
101760.1965
101846.350772
102151.161616
102293.589813
108798.587992
100791.007305
101861.377983
101860.462643
101754.370518
101830.600127
100789.497374
101074.539658
102702.391516
102813.078625
102571.107435
102617.70377
101012.356199
107964.85282
102265.006703
102311.815961
102043.808864
102061.156961
107527.794273
101150.290101
102877.519243
102996.465577
102858.815188
102862.568192
101126.831697
101466.445697
103610.450583
103655.889695
103497.78606
103563.834681
101415.669008
106837.047368
102344.279126
102121.81428
100760.567941
102001.728271
102075.515694
101881.484274
101922.787515
100737.283003
108678.294535
102018.846818
102090.376874
102372.481793
102374.034675
108488.922011
100944.230598
102453.049235
102520.986898
102176.868677
102328.073346
100880.891132
101191.793755
103101.836928
103185.270475
103068.620123
103081.737475
101177.06196
107455.698592
102027.443283
102089.675548
101786.209096
101657.330183
107190.134547
101197.947113
103260.846242
103416.866558
103246.401697
103235.563028
101163.955726
101236.362137
101209.099589
101275.678464
101263.014579
101194.722681
101181.613631
101164.499372
101123.715753
101285.871461
101326.947217
101328.52471
101334.885191
101351.182797
101393.455568
101499.260644
101752.843009
102309.153819
102318.361592
102761.454065
102969.855919
102931.751441
103266.26732
102884.383929
103154.027621
101975.949943
101293.280728
101227.917128
101189.044141
101309.824258
101294.248781
106076.90076
103963.511806
101558.746012
101213.490623
101326.543342
101284.97027
104935.954954
101696.098917
101323.472755
101647.722817
101729.713193
104846.257282
101417.894866
101472.432126
101544.198705
105313.945923
101940.891396
101670.087963
102045.06586
102040.229255
104300.051807
102076.201324
102028.015361
105288.343521
101579.783322
101689.680418
101680.134813
101388.762254
101636.746683
101431.74072
101718.208746
101543.118233
101505.426558
101622.519734
101533.58075
101757.445451
104437.724094
102036.368277
102089.10197
105805.274377
102700.136152
102588.123612
103167.580983
103056.218066
104105.34969
102899.930879
102864.637397
105075.265241
104685.825519
102849.968488
102927.293856
102598.723851
102673.743001
105538.943433
101879.137066
103673.69121
103668.108096
103699.377742
103796.555611
101804.728278
102045.607524
102936.468036
102898.194276
102964.572873
102945.353717
102048.458016
104204.848007
102910.603086
102808.460709
102085.237824
103561.424449
103383.907638
103591.285462
103584.135923
102082.142504
105155.036619
102764.831458
102666.360344
102812.599895
102820.341807
104547.85613
102047.488331
103148.03252
103029.876888
103428.619975
103279.795689
102071.052307
101645.811391
101659.983189
101545.179264
101546.727352
101590.673037
101615.192045
101532.925857
101559.515185
101536.051621
101577.442567
101667.466953
101695.942177
101749.330591
101741.561571
101695.102704
101701.007785
101719.271707
101669.899939
101572.624352
101466.465619
101575.032375
101488.109686
101359.310808
101287.116658
101334.265274
101339.156045
101368.972092
101362.432726
101435.076618
101415.123617
101566.015582
101538.043887
101839.534834
101806.94452
102277.461778
102626.745057
102740.090452
102703.387372
102196.783075
101512.180829
101346.558401
101667.635021
101462.255675
101539.23781
101432.788348
103825.477304
103058.967542
101643.456894
101550.037503
101504.174656
101684.784063
103410.556723
101570.810115
101611.885853
101559.112502
101587.635963
103317.998148
101649.06183
101455.920074
101427.743462
103635.48486
102097.368763
102026.749448
102446.851121
102322.904424
103037.126348
102274.757245
102164.199212
103577.783762
101556.902738
101495.896013
101514.618003
101468.921996
101459.334312
101557.0002
101591.434618
101497.14138
101520.493902
101485.448981
101467.859414
101597.56688
103003.433428
102273.373639
102220.232524
103761.591267
103160.059779
103175.373776
103879.306688
103824.304501
103067.001341
103506.180771
103452.49661
103494.18492
103182.259586
103477.089242
103510.506376
103131.856689
103143.136817
103709.025984
102047.151889
102617.774701
102569.329913
102810.536817
102705.817337
102019.980113
102453.532152
102030.806452
101934.070734
101978.271672
102035.461122
102420.541117
103069.175868
103739.661933
103553.408334
102287.258428
102592.421308
102497.735085
102546.677349
102574.257222
102253.579406
103599.022225
103317.266647
103179.362345
103473.157609
103462.975116
103050.909355
102253.971874
102133.495787
102040.457322
102348.714751
102223.315336
102230.040583
101446.549281
101490.467805
101506.797437
101473.06676
101475.154168
101447.46113
101523.78704
101504.874003
101493.082994
101510.030705
101515.094927
101527.03453
101479.999095
101507.897151
101504.756943
101504.189516
101502.98884
101469.652567
101542.501793
101527.666679
101514.86697
101493.536829
101517.144654
101543.951798
101359.831549
101434.013922
101438.48301
101591.761748
101854.358673
102236.864176
102517.801634
102617.913186
102597.94786
102263.913535
101741.573151
101483.434145
101500.543025
101631.274477
101560.406861
101536.053749
101494.673202
102971.159544
102329.83837
101558.455466
101391.705921
101343.929627
101611.511921
102599.290399
101443.729473
101513.49041
101508.857359
101448.956196
102556.683329
101582.379666
101321.350287
101318.679019
102764.190172
102376.426835
102387.1429
102768.165139
102604.009415
102695.774311
102614.831212
102415.293842
102787.821846
101458.201453
101375.229683
101456.945647
101451.286136
101360.78502
101474.897886
101503.719525
101392.827308
101465.785096
101449.703849
101386.013616
101475.551539
102622.942329
102579.177451
102618.155784
102856.920258
103929.426233
103932.321794
104672.142091
104718.083347
102447.71476
104315.927938
104236.812956
102656.687115
102567.20958
104406.049214
104365.121324
103954.267712
103921.491004
102776.584678
102355.070013
101588.415183
101510.99942
101814.141329
101694.037373
102349.406393
102721.096203
100895.249162
100836.175306
100988.065213
100950.368255
102666.201199
102633.319755
104667.808598
104538.544142
102591.684254
101477.887909
101423.093985
101440.841146
101445.62845
102510.528356
102742.358388
104116.221697
104007.616768
104460.945535
104425.684832
102597.370462
102572.339031
101156.120075
101072.707076
101337.41387
101259.112605
102596.579639
101389.817865
101396.088863
101438.683096
101360.374842
101370.037737
101366.849929
101423.577731
101377.006327
101357.521401
101389.997234
101391.001726
101451.821427
101412.328892
101368.730225
101386.756537
101370.949036
101370.90676
101387.78945
101427.368537
101405.507546
101376.210973
101423.087925
101423.556268
101455.817495
101604.868821
101578.858497
101869.438271
102205.255769
102447.865915
102524.612925
102518.664144
102285.55145
101847.273157
101575.445636
101465.357195
101477.814572
101552.722615
101500.038458
101481.99005
101460.62824
102312.181225
101929.9238
101543.080257
101313.385544
101313.239354
101550.830306
102079.502744
101453.583908
101498.994821
101505.391943
101474.416978
102029.874294
101544.438962
101315.909526
101314.950337
102643.525604
102961.007466
102777.589149
102985.479978
103135.843054
102231.185986
102902.019094
102994.669011
102615.023518
101459.908995
101492.02303
101402.569647
101456.356423
101496.163736
101485.221334
101523.503071
101491.262724
101456.827467
101383.54045
101422.306283
101507.716626
102121.937712
103005.075066
102874.401158
102322.691335
104716.017811
104683.057388
105506.783724
105548.674201
102052.763433
105119.219006
105143.009441
102237.945663
102000.700215
104974.666527
105026.328782
105046.506251
104783.021754
102455.565143
102876.105632
100748.230428
100835.174771
100784.104925
100751.108696
102812.890944
103136.93843
100499.34475
100437.007521
100462.496104
100553.143243
103204.97262
102177.769017
105571.688507
105379.227319
102962.494367
100690.635314
100590.132067
100882.687298
100795.014302
102987.699694
102426.550148
105206.349305
105230.621514
105075.174253
104957.393578
101981.28259
102945.184293
100348.814346
100342.702105
100451.523387
100394.151754
102912.667238
101461.418771
101402.400317
101408.804747
101399.634288
101403.321522
101482.038619
101476.460293
101372.296317
101389.22315
101325.906051
101357.855722
101448.260173
101393.383608
101340.89095
101329.792841
101363.212416
101344.784827
101397.524571
101514.449677
101408.744577
101400.421752
101353.376007
101392.224391
101492.612013
101935.091097
101831.123892
102167.672415
102362.349886
102447.156947
102452.225075
102287.875656
101920.899117
101634.91307
101523.411213
101457.024008
101444.299529
101532.168986
101420.128561
101469.802627
101435.968258
101415.82843
101837.839551
101352.76164
101434.261711
101388.833812
101431.824923
101423.275044
101276.542318
101232.685766
101507.868027
101227.765031
101246.65893
101419.564899
101546.061426
101357.968394
101458.43426
101446.928118
101375.82111
101526.180655
101463.135068
101214.974596
101215.995011
101219.462942
101441.655113
101448.168915
101482.908806
101453.573837
101123.659879
101420.846303
101285.444032
101307.566921
101620.028158
102846.74423
102915.648429
102612.212615
102666.658545
101426.093878
101445.945442
102610.064285
102588.202854
102225.893315
102324.29364
101225.445755
102819.056586
102840.187703
101634.781894
101398.463845
101367.96053
101385.322447
101431.283753
101579.461079
101665.340695
101521.062746
102685.799238
102745.491214
102328.74172
102544.402768
101453.190868
101435.868709
101794.352699
101733.971909
101700.100696
101811.527655
101445.797972
101491.587882
101948.18118
101932.048992
101730.828611
101899.041649
101488.077933
101094.458017
102230.269506
102260.262331
101766.922711
105345.735859
105442.324196
104998.75947
105011.408785
101349.190351
101423.384753
105074.89335
105019.457571
104813.458396
104830.884078
101487.52526
105268.310494
105303.499987
101579.181984
101528.653635
105215.624943
105254.797273
104868.46451
104959.670625
101334.170436
101077.062439
104718.364837
104785.282109
105229.288881
105270.258948
101680.375728
100360.560474
100311.272767
102880.723809
102626.393517
100809.150351
100865.304511
100746.289292
100779.54528
102652.223082
101376.6908
105074.913894
105143.307654
105080.728524
105076.78641
101420.362665
102623.162371
101123.560772
101199.515459
100927.816498
101021.351977
102604.47206
102281.542455
101738.488903
101796.137012
101510.828543
101663.485403
102329.410191
101430.108621
104800.134918
104660.312499
101640.315503
105357.107503
105273.575778
105184.445434
105161.794202
101542.277881
102397.316136
101246.097416
101225.246418
101242.329116
101267.164037
102472.60016
101413.572424
105059.740001
105085.316284
104605.954305
104640.793735
101055.624413
102184.610338
101224.632104
101311.577382
101212.655626
101213.29803
102208.094745
102845.930889
100317.545759
100356.923257
101369.337809
101395.399753
101486.344724
100423.785012
100521.001413
102835.586517
102838.112807
100538.798969
100561.72515
101478.750607
101554.537476
101407.18288
100582.442521
100584.8331
102708.945822
102688.369339
100615.277236
100689.648944
101352.458076
101236.287479
101298.072723
101194.52996
101201.477128
101351.840514
101427.112685
101211.186977
101197.39534
101224.180153
101223.620741
101467.97888
101497.538757
101235.670495
101223.38493
101267.795645
101253.940248
101527.502343
101614.113937
101297.647343
101279.06538
101302.00565
101297.499222
101638.089879
101771.250679
101341.623375
101319.891531
101342.789926
101349.41522
101804.688847
101766.598917
101303.118295
101328.923271
101280.620322
101287.153839
101742.215285
101746.260923
101284.981183
101274.931004
101378.575276
101334.080729
101798.040703
101960.413688
101377.32347
101384.890919
101349.264886
101367.378383
101950.507592
102704.015403
102141.181708
102359.155978
102406.280436
102401.81356
102283.69814
101976.64045
101694.522671
101581.983508
101534.948686
101484.943563
101488.169616
101447.333622
101431.28234
101410.359045
101387.490467
101369.766933
101420.291855
101409.760018
101406.391385
101359.498575
101427.335695
101455.249795
101385.438956
101294.175237
100693.75784
101398.894011
101331.343374
101354.687389
101415.158317
101421.883438
101471.620998
101469.474093
101492.893892
101469.954277
101476.77554
101407.823302
101381.803464
101421.483447
100804.483046
101901.287799
102135.452021
101539.063492
101667.81645
100840.934029
102014.970977
101868.090653
100790.975866
101470.77332
101975.082447
102087.100245
101910.618162
101924.900089
101467.664314
101489.422772
102080.734808
102176.273367
102052.413868
102060.126639
101480.725443
101098.100946
101734.742507
101944.037502
101066.505247
104620.324051
104722.566941
103984.991479
104058.23564
100647.528401
104597.082398
104368.60483
101166.181365
101452.266432
104580.536418
104618.826683
104461.484408
104531.635826
100872.494436
101957.545914
101749.044702
101742.97664
101802.019467
101774.310229
102039.464074
101548.653402
102222.520276
102269.084577
102229.703711
102241.068901
101599.490545
100683.26369
104179.009048
104268.859166
101975.729329
101944.402765
102153.507588
101735.617331
101769.020101
101892.902706
100888.672603
104278.276995
104358.856732
104378.593372
104480.854961
101335.808628
101794.946209
102208.562059
102214.564338
102204.382381
102220.19884
101861.883203
101901.602069
101324.85422
101331.997789
101335.695279
101323.557889
101902.842343
102056.601925
101382.985436
101369.270117
101367.655063
101382.271096
102089.370727
102020.334114
101345.290371
101352.544308
101372.331177
101357.349416
102034.868616
102105.883458
101387.949412
101382.838986
101396.770045
101397.250572
102138.692352
103734.261484
102300.744458
102419.171033
102390.472576
102392.447754
102309.11956
102288.053105
102084.078797
102023.169885
101791.474683
101736.981251
101594.930985
101497.226697
101440.744348
101422.312086
101413.131127
101406.135345
101388.29583
101485.284138
101512.135155
101416.367986
100815.109444
101442.868477
101356.573121
101450.500851
101489.66263
101375.880543
100888.950158
101530.28603
101497.982639
101518.857514
101507.041429
100793.332426
101364.465866
101515.216012
101559.907306
101468.985265
101626.804144
101562.536071
101430.213948
101235.23314
100913.627587
101278.431942
101559.152741
101394.326641
101532.625318
102256.150645
102273.759346
102197.154025
102267.595174
101517.700063
101525.955729
102476.066621
102597.204094
102291.93066
102406.314342
101519.59411
100739.165988
101200.995768
101229.970646
101144.786675
104051.07485
103946.392309
104006.418004
103995.806235
101339.920413
103990.382396
104070.827967
101048.85232
100714.630075
103861.040809
103928.058648
104336.395734
104260.602784
101416.188461
101634.387035
102693.456995
102826.884128
102358.892167
102524.705238
101613.041835
101474.574548
103519.002979
103602.171871
102949.792462
103192.606938
101334.800008
101187.120455
103896.610931
103690.845107
101349.817207
102833.742971
102773.640147
102924.810378
102913.170884
101458.035223
101279.42713
104189.8506
104298.954287
103686.933732
103772.839889
100690.7543
101185.715374
102758.006554
102830.700701
102742.833151
102733.99523
101197.078784
102226.608044
101401.692248
101397.275763
101433.572956
101429.049477
102255.071978
102250.044036
101442.421754
101440.491026
101447.166556
101444.895677
102254.733572
102312.828923
101436.89877
101450.068162
101463.837956
101453.862104
102354.022719
102561.017244
101498.602785
101481.165429
101501.106002
101507.568089
102604.288501
102527.112598
102389.913516
106494.678541
105005.940823
103083.034109
102902.051715
109952.437878
130263.426123
102299.824684
102437.092945
102332.630948
102126.634046
101858.050019
101660.006689
101531.589063
101470.007308
101429.451321
101421.596049
101433.295484
101430.980099
101352.152846
101537.905175
101573.811628
101452.084564
101428.265846
100402.104413
101367.887385
101583.567028
101623.98356
101355.162179
100848.554738
101565.432464
101496.334816
101440.064347
101555.433988
101356.419598
101362.583717
101612.774563
101637.389112
100787.281145
100956.882332
101287.437567
100549.422682
100849.852847
101379.514983
100773.74251
100870.209011
100567.796615
101524.062304
102400.933122
102588.920668
102533.195297
102398.103681
101503.545457
101446.156609
102629.947832
102536.276062
102735.924958
102715.701208
101510.636508
101561.71028
100937.618869
101017.836643
101340.22502
103953.390851
103984.553333
103197.595891
103440.449065
100525.845362
103252.204369
103232.933785
100550.626262
101564.81544
103751.700215
103600.686321
103711.438294
103854.185692
101123.314562
101058.826214
103377.441066
103364.609844
103539.177095
103451.663372
101177.197463
100600.62534
103884.078493
103802.16404
103747.619498
103881.938959
100785.542538
100889.053449
103642.054112
103731.525321
100727.956575
103286.248446
103385.237284
103357.085558
103327.629679
100791.544756
100500.382739
103394.132156
103571.628425
103754.295276
103772.323281
101597.323881
101031.66645
103977.109672
103823.131617
103814.442217
104052.521953
101098.495962
102469.089057
101456.042327
101470.9254
101434.234535
101441.126271
102420.73137
102416.640424
101447.08152
101442.173529
101591.041135
101493.532353
102466.744368
102759.660258
101625.565876
101639.717312
101566.518276
101603.745885
102744.719226
102579.004327
101426.155971
101481.466997
101404.838175
101410.325224
102553.967531
102496.681257
102489.584486
139525.12879
135148.116214
102442.94085
102439.95374
137940.757746
102466.411916
102439.854037
102308.887698
102413.959955
129727.017558
102555.982894
102456.905966
134623.853844
102370.082823
102426.139803
102484.035464
102462.164478
102481.780904
102507.150355
138979.906242
103699.673256
103716.707325
102420.818188
102460.652311
137356.224638
102451.238754
102434.574741
102433.083426
103745.768029
103755.379919
138469.380876
102434.303579
102424.087844
102427.093739
102444.685143
102490.380465
102508.030375
136611.232944
103595.684471
103703.654847
103462.834629
103500.341004
135768.646779
102423.911357
102437.315106
102437.195856
132949.183314
102445.509121
102414.664673
102436.801009
102427.296491
102400.869941
102493.980937
102467.461378
102452.264764
102460.874313
102426.0493
132114.059803
102513.840543
102516.954625
102539.98948
124648.408189
102494.995983
102598.33847
102428.107447
102433.3954
102485.046967
134113.585955
103524.358297
103489.538592
103433.86124
103496.821707
133574.401133
102434.771175
102492.227375
102457.877248
102449.95585
102476.053701
102446.290733
131358.376462
103234.443082
103298.312185
103314.744932
103220.654412
130782.485798
127456.424461
102567.824947
102509.363427
102510.073887
102452.722676
102486.813155
102384.124343
102338.821009
102422.121141
129115.523911
103286.233912
103320.178022
102411.527333
102321.713227
102443.436334
102523.606014
102388.527477
123692.758734
102337.905674
102366.383337
102339.593517
102539.18661
102417.867366
102341.84133
102923.081974
102594.89599
126742.050537
102554.66386
102635.642591
102623.299834
103136.002717
103197.18287
128331.920551
102474.405347
102457.541536
102537.357133
102547.031173
102421.210924
102386.010526
126105.594316
103364.874542
103177.398424
103613.626472
103570.27436
125420.092626
102620.370524
102694.156018
102723.435802
120120.276208
102704.936057
102939.66881
102399.644957
102565.842003
102695.051675
104570.982215
103525.841222
117739.126875
102309.914512
102354.643184
102383.552954
102552.080132
102429.574009
102361.963374
122585.271496
104008.982953
103790.4735
102858.805621
102683.310184
102919.799439
105177.372247
104537.034313
121524.804675
103110.495404
103315.990638
102861.558503
102695.105102
103393.721741
103393.524459
114463.475008
106858.582732
105861.241336
140211.159508
102459.614953
102212.883116
101919.286018
101696.561074
101568.363696
101485.681634
101455.575975
101436.80854
101437.205904
101467.689018
101486.228263
101381.689102
101624.052023
101638.964693
101506.896457
100409.453315
101421.90892
101298.700591
101630.943626
101580.751284
101371.111753
100931.712314
101384.330008
101449.21244
101248.751108
101328.822312
100593.076603
101334.072034
101494.921222
101481.096488
101477.261463
100707.669717
100460.630714
100592.890538
100360.035096
100975.630022
100510.459923
100642.903792
101584.224138
101422.708847
102781.40475
102546.140432
102533.612397
102770.747361
101455.036731
101260.147155
102533.605493
102398.11358
102508.46827
102491.655686
101289.502079
100562.698834
100322.846447
100452.389199
100634.936323
102964.725901
103031.779407
103063.405627
102980.19164
101487.740183
103305.519327
103348.339193
101383.569202
100444.217551
102994.979536
103183.097694
103407.471056
103200.128592
101167.128654
100619.992315
104039.658179
104343.730047
103721.120933
103733.63507
100466.463439
104106.211584
104116.912992
100466.29914
101320.963281
102953.076631
102858.865193
100539.31279
104136.681921
104225.899423
104286.825101
104175.239426
100575.686248
101557.896831
103317.509707
103370.573193
102765.701424
102823.172498
100421.56036
100340.433333
104100.404451
104088.123441
104209.130321
104150.832886
100388.738052
100552.833195
104104.901254
104128.487436
102465.720455
102422.63771
149533.094777
102584.537461
101499.860862
101432.824688
101575.334775
101570.819728
102725.242194
145344.811425
102451.894966
102439.60486
147531.334286
102444.489999
102466.32024
102446.264143
102450.50092
144616.832212
102402.352312
102352.029625
102413.165068
102775.718572
101546.053185
101569.159239
102436.086897
102442.039528
102434.995215
148906.060927
104326.931704
104401.522217
102471.12982
102431.234168
147002.555975
102440.829893
102443.339108
102445.782619
104201.644188
104242.039825
148142.432586
102490.298547
102477.669248
102462.626048
101442.018263
101484.651453
102685.041085
104145.097207
104190.552189
145930.730595
102448.079882
102441.840363
102445.359967
102451.887745
102455.513366
102438.240806
142768.691177
102434.410475
102459.766028
102472.31036
102504.871762
102495.08069
102432.8796
102487.794441
102455.837442
146476.267637
104205.931248
104180.23133
102459.075476
102469.83791
142240.640818
102450.395999
102445.413362
102445.506408
102452.431988
102451.403434
102451.993283
143865.063155
103977.657827
104045.59387
103959.243154
103946.867956
143291.685662
102475.761449
102448.776924
102451.673151
103766.311647
103877.597831
141042.658474
102466.735019
101419.024123
101429.159846
102446.476647
102453.719143
102459.607509
102434.133957
102431.799771
102454.131874
102509.560107
102507.128495
102476.564684
141681.418572
103948.378931
103976.825244
102468.252161
102491.214271
102462.790018
101492.529471
101454.652206
102454.964649
102525.573714
101481.91719
101494.930407
101396.174731
101427.636172
102484.598949
150086.575214
102355.559305
102033.14865
101791.008538
101630.991677
101544.026169
101482.38417
101461.773385
101455.584609
101463.470141
101488.74037
101500.414445
101254.520089
101594.198627
101569.716746
101484.056633
101174.962519
100658.502583
101233.794873
101334.078449
101356.601126
101285.327489
101350.938464
101310.59683
101368.884625
101224.229792
101515.344178
101531.909804
100218.568157
100303.322645
100581.045641
100534.689593
100525.061078
100520.722221
100886.921972
100226.179011
100277.640742
101348.550989
102018.005371
102272.215154
100696.024342
100685.473192
100888.21261
100665.42578
102949.156883
103082.544745
102578.789759
102550.250785
100473.515353
103194.987069
102920.459321
101073.881508
101309.824405
103193.557605
103247.204975
102659.337969
102796.600763
100327.180213
100379.605132
103992.196879
103935.717657
100415.659708
102607.31958
102736.361626
100550.863665
102627.861162
102591.473076
102899.623951
103058.416309
101078.038644
102483.406568
102084.958861
101322.366813
100778.54436
104230.483748
104169.854535
104352.321774
104303.031944
100825.285137
104094.957497
104017.801583
100391.617046
101510.659149
101505.981422
101217.953367
102280.82883
102146.79263
101367.992762
100441.436168
104079.094111
104016.133926
104122.782554
104113.553405
100539.050543
101391.902464
102193.471312
102585.694151
103946.29412
103921.751708
100331.011511
100687.326915
104124.149352
104347.600006