/*--------------------------------*- C++ -*----------------------------------*\
  =========                 |
  \\      /  F ield         | OpenFOAM: The Open Source CFD Toolbox
   \\    /   O peration     | Website:  https://openfoam.org
    \\  /    A nd           | Version:  8
     \\/     M anipulation  |
\*---------------------------------------------------------------------------*/
FoamFile
{
    version     2.0;
    format      ascii;
    class       volScalarField;
    location    "2e-05";
    object      rho;
}
// * * * * * * * * * * * * * * * * * * * * * * * * * * * * * * * * * * * * * //

dimensions      [1 -3 0 0 0 0 0];

internalField   nonuniform List<scalar> 
50271
(
0.0701947322817
0.0701947323932
0.070194732876
0.0701947348602
0.070194743043
0.070194776791
0.0701949159705
0.0701954913939
0.0701978706038
0.0702076692345
0.0702477318446
0.070218709023
0.0702430848434
0.0703030737043
0.073458060062
0.070545599563
0.102784416992
0.112660370372
0.0751358225006
0.0703945440124
0.0751952156204
0.0708204813933
0.071544821695
0.0706671125696
0.0711143769033
0.106405532935
0.0775581773197
0.0702594717002
0.0716209789456
0.0773959679197
0.107874024193
0.0716121197258
0.077182092353
0.0727456055719
0.103786670306
0.0802108669534
0.0706574271525
0.0705510218793
0.0713846235789
0.110765908281
0.0746362431867
0.0759717388233
0.0753442671283
0.0725030449344
0.0711743831273
0.0721294637722
0.0746246952296
0.0797492009033
0.102942169482
0.0752108258339
0.0791621154375
0.0761548102278
0.0703076182986
0.0782665212779
0.0713833469201
0.0725745700069
0.0714553740766
0.0709065219989
0.0746607703742
0.0724790925368
0.074510688751
0.110302139938
0.0715630382757
0.0735994322219
0.0726156544619
0.0747983120406
0.0728343351138
0.0754334398437
0.0761898217341
0.0750207109346
0.074437383988
0.0761233267882
0.0744859425459
0.108235248012
0.0835915237212
0.0769700260086
0.0746346600905
0.0746402300589
0.111959036208
0.0739979822073
0.0749211765134
0.104625349718
0.0769602698176
0.0781022536986
0.0779486546743
0.0770460530821
0.0758899792025
0.0769078017667
0.108689318384
0.0739569849674
0.0738341845018
0.07702791774
0.076658903038
0.0762949530354
0.0808618522724
0.0831209822287
0.106617496163
0.0780890806642
0.0806614781037
0.0804031518554
0.0720703591498
0.0780219096718
0.0734168420408
0.0708630573798
0.0713081587938
0.0709821776193
0.0716912216379
0.071596602372
0.071219791885
0.111378842469
0.0746636208416
0.0745964142746
0.0759569460901
0.075810297165
0.0754665932208
0.0763521831278
0.0747111880022
0.0732852090943
0.0790088592616
0.0768853239495
0.0783445991508
0.103533109159
0.0763298531638
0.078277886166
0.0788190274031
0.0787156363401
0.0774564830763
0.0778014349678
0.0785013037655
0.0779607027102
0.0713677406923
0.070587354901
0.0702240406049
0.0747880826144
0.0719022267014
0.0744002572907
0.0744823629769
0.0740991350378
0.10935969598
0.0717102259023
0.0717013306134
0.0717795067023
0.0724725692056
0.0719722030839
0.072228142201
0.0762629525256
0.0765840094158
0.0763007081895
0.0759671417673
0.076493664692
0.0764149803952
0.0759133077541
0.0752872033591
0.0758869980623
0.0701947434937
0.0701947609234
0.0701948257199
0.0701950346578
0.0701957150841
0.0701979195924
0.070205036884
0.0702278209235
0.0703003286354
0.0705306795012
0.0712100481548
0.0719703988463
0.0738671835777
0.0730851969592
0.072212951706
0.0722329265012
0.113341223588
0.124164519414
0.0705219323434
0.0719179371101
0.0707292812939
0.0723467150272
0.118542965219
0.0702508639005
0.0711028855718
0.0700870947318
0.0701310909345
0.119240475702
0.0712355560847
0.070126274256
0.070056032796
0.115610603811
0.0705292689202
0.070415927138
0.0705999026385
0.0706032481903
0.121906885141
0.0704970863159
0.0705277608467
0.116188158785
0.0703503851844
0.0702239932302
0.0702833619341
0.070565323394
0.0704136432212
0.0705132874517
0.0700454576342
0.07020471359
0.0702529644952
0.0702623860948
0.0702388715888
0.0700692549674
0.121345440213
0.0706471758913
0.0705551561847
0.114107761711
0.0749445830173
0.0747402304598
0.0780556740712
0.0778093343779
0.123313900245
0.07630486208
0.0761358236899
0.117776642826
0.120182549455
0.0769368725031
0.0765288903012
0.0756166730093
0.0752480755228
0.114957510537
0.0704735891272
0.0710380245157
0.0711949598366
0.0709168876545
0.070920832682
0.0704408127155
0.0705695338104
0.0715644340836
0.0716192190053
0.0715859806987
0.0715379846101
0.0705578799299
0.122603673724
0.0775978519809
0.077429686231
0.0704697109065
0.0712395988591
0.0712981225805
0.0712474872684
0.0712317858732
0.070457582177
0.11687670465
0.0759444605274
0.0757892404298
0.077288661089
0.0771578670035
0.120859006298
0.0706366252596
0.0715575737724
0.0715938047972
0.0713788742064
0.071500514453
0.0706171416738
0.0701948735444
0.0701950359741
0.0701956472407
0.0701974033988
0.0702024995799
0.0702169678661
0.070257079051
0.0703655448651
0.0706444565246
0.0711543106501
0.0714956858256
0.0718308909541
0.0706328356055
0.0702425542017
0.0699804870208
0.0710625822032
0.0703198666826
0.0712349053465
0.0700431082521
0.070065981285
0.0702626343307
0.124927847507
0.136133180418
0.0699523646551
0.136823081453
0.145048040248
0.0701159926722
0.0700350887485
0.0699934724702
0.069968454561
0.0701086954788
0.0701876565598
0.0700235434808
0.130078807208
0.0701468680786
0.0701081655196
0.0702811736225
0.0701707601465
0.130851486428
0.0699188030295
0.0699858401009
0.0700340823569
0.141079578764
0.0704836146405
0.0703512110674
0.0704443878654
0.0704926103459
0.14166824879
0.0700908632789
0.0702651057493
0.0702868432863
0.126740391844
0.0706727992253
0.0706528838323
0.0710100115583
0.0709177077879
0.133841859533
0.138624294375
0.0710749242471
0.0710257911941
0.0714196487214
0.0712471176204
0.143970096506
0.0707623380104
0.0706870771352
0.12762237399
0.0701426219166
0.0703573430634
0.0703873710425
0.0702998120039
0.0703195708365
0.0701182537485
0.0702301761404
0.0705172687525
0.0705907587785
0.0704278647564
0.0704735349476
0.0701899600949
0.133320540556
0.0708987313396
0.0707968960774
0.0711171329536
0.0710860550627
0.139166951715
0.070444546161
0.0707104644018
0.0707352200845
0.0706461430136
0.0706943974552
0.0704138579004
0.0704560305222
0.0709072676509
0.0709667592819
0.0707357298472
0.0708967114429
0.0704941711978
0.14316214743
0.0711870824044
0.0711246395262
0.125467468213
0.0785419680485
0.0783200039541
0.0830275548766
0.0825961492267
0.135248037645
0.137308051419
0.0836728624248
0.0834186685552
0.0892642547451
0.088837930923
0.144776493593
0.0801750081469
0.0798251646582
0.129321217575
0.131719685406
0.0809048690519
0.0805166031768
0.0856272547737
0.0852010860253
0.140248384319
0.142141522431
0.0863045649556
0.0860301621648
0.0789286851141
0.0787126094604
0.126026087757
0.0706906393521
0.0717783865146
0.0717852795375
0.0716906929675
0.0717473762626
0.0706730548877
0.0709766454309
0.0723528983149
0.0724227981329
0.072260287752
0.0722973797136
0.0709338902835
0.134480318997
0.0822412433049
0.0819408485835
0.0843139071531
0.0839228424089
0.137847641491
0.0710524046383
0.0724783218525
0.0725469820568
0.0724584864514
0.0724666951049
0.0710331394965
0.0713624663001
0.0733359779779
0.0734740020804
0.0730095101515
0.0731835629289
0.0713092520266
0.144500607254
0.0883877554853
0.0877975800558
0.07073939251
0.0719100503996
0.0719659221243
0.0718081548474
0.0718505848331
0.0707084170844
0.12855086946
0.0794766087423
0.0791897604993
0.0816545606351
0.0813114753117
0.132700760953
0.0708753109233
0.0721811040045
0.0722259726528
0.0720274750165
0.0721129329004
0.070832430179
0.0711052498257
0.0726312072234
0.0726875240504
0.072600939413
0.0726155679264
0.071089756964
0.139629338323
0.0849470303259
0.0847032331168
0.0870992393407
0.0865861269102
0.14258469769
0.0711327748104
0.0727641575299
0.0728667385195
0.072738614738
0.0727430969792
0.0711185202716
0.0706277604658
0.0706135106308
0.0709411475289
0.0709213574568
0.0706067859849
0.0706046990396
0.0706141502608
0.070619370031
0.07085622806
0.0701956945911
0.0701964740984
0.0701996173313
0.0702076708988
0.0702285576652
0.0702808204604
0.0704060043141
0.0706802650876
0.0706848952776
0.0709028525094
0.0710052029163
0.070986250228
0.0711492752956
0.0709607724392
0.0710856491095
0.0705019911123
0.0701498230657
0.0701516251323
0.0700979069184
0.0701647965512
0.0701527747347
0.145483989559
0.152478137268
0.0703371896465
0.0703253381183
0.0703994956823
0.0701880454849
0.149144941031
0.070662414633
0.0704618443835
0.0706735573391
0.070689047268
0.149696970525
0.0702612209454
0.07049111133
0.0705598837906
0.147104175812
0.071710488179
0.0714984517582
0.0719405052717
0.0718925059765
0.151105746916
0.0718362911451
0.0717759174485
0.147654947792
0.0705975866349
0.0712091159523
0.07123109103
0.0710109478985
0.0711715743357
0.0705188676687
0.0707025604239
0.0712172756992
0.0712303357848
0.0712163986438
0.0712055582365
0.0707133248338
0.150738090136
0.0718803389497
0.071862829722
0.146097672202
0.0903830278303
0.0897718206983
0.0972314003723
0.09666032998
0.152130505492
0.0934163105348
0.0929206428767
0.148644466529
0.150098282662
0.0943448355744
0.0939268450715
0.0913946742379
0.0909035951909
0.146614501538
0.0716530465932
0.0739639802592
0.0741009635673
0.0736401620478
0.0738410167086
0.0715922765665
0.0719223250026
0.0755033387247
0.0756808833576
0.0751765702303
0.0753255370113
0.0719092501612
0.151625820585
0.0960524136767
0.0955147562803
0.071825324587
0.0745398498082
0.074618425048
0.0742704215298
0.0744476431445
0.0718141616861
0.148150089804
0.0924307073592
0.0919085539479
0.095106848419
0.0947346371934
0.150425103474
0.0718771557695
0.0749797461687
0.0750676192815
0.0747516254695
0.0748685163182
0.0718744417146
0.0709052491286
0.0709049450919
0.0712038539644
0.0712285663339
0.0708896272965
0.0708966651978
0.0708743903729
0.0708803964874
0.0712331728955
0.0712089370424
0.0708988640929
0.0709037199408
0.0709208442517
0.0709081540617
0.0712262903216
0.071220928823
0.0708895102985
0.0708591499512
0.0708043484008
0.0707471010643
0.0711248354675
0.0710692856851
0.0706913159389
0.070654042456
0.0701993113868
0.0702017279154
0.0702164613858
0.070213230132
0.0702491215067
0.0702392633982
0.0703137904328
0.0702999752675
0.0704487806501
0.0704326956464
0.0706646536233
0.0708366274241
0.0708922834747
0.0708736023572
0.0706215496152
0.070272293833
0.0701799399537
0.0704074667294
0.0702478140043
0.0702933871897
0.0702229758748
0.152752233813
0.157536891148
0.0704228371365
0.0705814410791
0.070581552092
0.0704260728373
0.155127276038
0.0706734169413
0.0706666504519
0.0707140126071
0.0706952767619
0.155342690421
0.0704169236088
0.0705841645709
0.0705957225544
0.15361885709
0.072014619177
0.0719515608783
0.0723205877218
0.0722355986709
0.156565926865
0.0721535465858
0.0720607430827
0.154088835578
0.070656930426
0.0712684485903
0.071306046031
0.0712260851623
0.0712421811645
0.0706479793952
0.0707203169077
0.071339632778
0.0713714836584
0.0713010200761
0.0713192560558
0.0707121876906
0.15623431336
0.072201133965
0.0721404191571
0.153013561571
0.0980496222496
0.097682643079
0.104278711429
0.103856574365
0.157201746274
0.100756033084
0.100354945454
0.154916587559
0.155618897977
0.101558122459
0.101131749187
0.0987761339851
0.0983942852018
0.153284550639
0.0719795271387
0.0760468777408
0.0761798603423
0.0758243751007
0.0759367173309
0.0719589038662
0.0723165776219
0.0778564766572
0.0779781233956
0.0775082701777
0.0776979729178
0.0722934341762
0.156896189787
0.103444363811
0.102961641531
0.07214679372
0.076726596029
0.0768398265137
0.0763403908677
0.0765386817513
0.0721190929217
0.154625173761
0.0998291335338
0.0992612764642
0.102513732182
0.102050317008
0.155939991476
0.0721795926287
0.0772121109151
0.0773620765024
0.0769274881141
0.0770511188391
0.0721535930719
0.0712246941187
0.0708691207611
0.0708703777813
0.0708732995651
0.0708688339748
0.0712301225843
0.0712900382478
0.0709027002802
0.0708900146453
0.0709216953521
0.0709169717099
0.0713007217477
0.0713071333084
0.0709375428103
0.0709272067764
0.0709526888708
0.0709453396331
0.0713127052107
0.0713680780522
0.0709765562375
0.0709647247266
0.0709766764921
0.070979082416
0.0713735768284
0.070211946974
0.0702486093052
0.0702508037703
0.0703265062016
0.0704561024143
0.0706446687221
0.0707830346531
0.0708322638678
0.070822219875
0.0706568394335
0.0703948469332
0.0702586231996
0.0702646083763
0.070430040277
0.070312826284
0.0703076283075
0.0702643175161
0.157807692355
0.160569369027
0.0704297659759
0.0706036894016
0.0706068386034
0.0704303423865
0.158901657937
0.0706978459097
0.0707032148117
0.0707692809783
0.0707091195063
0.159094629009
0.0704297691804
0.070621383476
0.0706454624459
0.158285227362
0.0723248193052
0.0723038324892
0.0726225999658
0.0725144252623
0.160249679514
0.0724737939325
0.0723523520594
0.158477401906
0.0706951842664
0.0713319852717
0.0713893907555
0.0713478985226
0.0713219940811
0.0706919440059
0.0707584411613
0.0713910628083
0.0714437033744
0.0713911317254
0.0713821291376
0.0707327621698
0.159880661837
0.0724933476124
0.0724804286936
0.157995088932
0.105135285191
0.104730966348
0.11091997143
0.11058074313
0.160526797984
0.107554026885
0.10713034829
0.158737523991
0.159325864344
0.108335202887
0.107960509287
0.105879594391
0.105511618846
0.158137333712
0.0723082578543
0.0783469780569
0.0784757742543
0.0780978779457
0.0782209421478
0.0722978986972
0.0725924868715
0.0801844352671
0.0803489857824
0.0797961005549
0.0799895226162
0.0725547613014
0.160472801913
0.110089228357
0.10953975451
0.07245535405
0.0789869741409
0.0791345400492
0.0786114124681
0.0787894738436
0.0724074588337
0.158610106365
0.10667723964
0.106257303588
0.109081806908
0.108694475375
0.159587768424
0.0724817178698
0.0795166411702
0.0796471300938
0.0792690842494
0.0793965985876
0.0724790127687
0.0713255042347
0.0709452826597
0.070959578536
0.0709399724105
0.0709394646922
0.0713206954274
0.0713616994671
0.0709598863577
0.0709438597575
0.0709812281267
0.0709749445712
0.0713812826644
0.0713797224938
0.0709829331255
0.0709860354616
0.0709990000822
0.0709918953265
0.0713763939045
0.071414553638
0.0710286424129
0.0710078256766
0.0710503629851
0.0710442839733
0.0714341994505
0.0703330338703
0.0703201384965
0.0704635564414
0.070629110375
0.0707486301194
0.0707863900124
0.0707834039873
0.0706687065646
0.070451741226
0.0703114191433
0.0702510353551
0.070259434592
0.0704424090531
0.0702976324546
0.0702984636123
0.070255137164
0.160625381513
0.162470999383
0.0704805546814
0.0706691479997
0.0706908613295
0.0704538478004
0.161460480457
0.0707778215147
0.0707737577707
0.0708359545999
0.070796459149
0.161458557322
0.0704679148991
0.0707165912511
0.0707357143122
0.161444794175
0.0727455423503
0.0726336427974
0.072952925913
0.0729062918793
0.162411581016
0.0727514180606
0.072768997116
0.161633472388
0.0707735817058
0.071476313262
0.0714530938094
0.0714438608202
0.0714736449341
0.0707753289954
0.0708380225595
0.0715126565159
0.0715078283789
0.0714448234817
0.0714763503224
0.0708225511276
0.162172315975
0.0728362398442
0.0727406521799
0.160723754987
0.111501968655
0.111209445449
0.116601692822
0.116400568652
0.162509881267
0.113652349506
0.113489563012
0.161583011583
0.161570759004
0.114177133726
0.113848551742
0.112477885927
0.111892484279
0.161013786551
0.0726945683886
0.0808136619276
0.0810656364291
0.0804873083287
0.0806282968696
0.0726551971332
0.0729469790517
0.0828738129821
0.082990111976
0.0825139728021
0.0827425625243
0.0729462647718
0.162510369062
0.116152854054
0.115691997546
0.0727725742423
0.0814936163963
0.0815593773936
0.0812882750427
0.0814113776825
0.0727748455639
0.161677139511
0.113305994996
0.113008564567
0.115113179488
0.114620143309
0.161836852198
0.0727965275185
0.0820171936425
0.0822379645504
0.0816395946167
0.0818040296079
0.0727658597171
0.0714487254302
0.0710509055267
0.0710498416837
0.0710616880655
0.0710573290114
0.0714623891876
0.0714757239607
0.0710623859195
0.0710635473741
0.0710517249322
0.0710634198076
0.0714710076323
0.0714532058825
0.0710660465572
0.0710559610422
0.0710882147482
0.0710745850692
0.0714602652516
0.0715262029201
0.0711189614906
0.07111190813
0.0711033186271
0.0711160296141
0.0715192942236
0.0704961753195
0.0704446754962
0.0706106300307
0.0707065352514
0.0707482812328
0.0707507568627
0.0706699991887
0.070489136552
0.0703448214706
0.0702838468147
0.0702496513299
0.0702521423715
0.0704957139896
0.0705053149426
0.0703029205317
0.07029606773
0.0702422364439
0.162479393975
0.164091294161
0.0704938182869
0.164306471419
0.166339958275
0.0705551202543
0.0707370649254
0.0707331073682
0.07049712808
0.0707719701281
0.0707907635449
0.0705188203529
0.163368812921
0.0707976691565
0.0708222635505
0.0708715900012
0.0708117238437
0.163397369096
0.0704934810984
0.0707411353372
0.0707558064159
0.16497189929
0.0708982995427
0.0708783232563
0.0709476501961
0.0709115454625
0.16490883652
0.0705393507017
0.0708162812272
0.0708329088055
0.162936497302
0.0731162952888
0.0729543748237
0.0738992820077
0.0736858279848
0.163790703065
0.164926886812
0.0742318648465
0.0739663683632
0.075119948017
0.0748661127453
0.165599178408
0.0733947110843
0.0731966908222
0.163135159848
0.0714824791903
0.0714781161054
0.0707932936548
0.0708572475016
0.0716218655691
0.0716780690058
0.16368545487
0.0736071732862
0.0734165070186
0.0744332764056
0.0742852493428
0.165058135563
0.0708883375183
0.0717728524446
0.0717565731262
0.0716997374255
0.0717734045547
0.0708844620499
0.0709440993377
0.0718845944363
0.0718937181255
0.0717572589444
0.0718539704945
0.070935734689
0.165233963477
0.0747169763663
0.0744754186233
0.162548912572
0.11705847706
0.116802583337
0.121231163983
0.120965486925
0.163957601748
0.164542902727
0.121919155067
0.121551579811
0.125739254266
0.125426909283
0.166264202983
0.119130241229
0.118978902954
0.163340496116
0.163444948213
0.119448345458
0.119274256695
0.123419340496
0.123274493742
0.165073692498
0.164924069291
0.123720161403
0.123561476966
0.117878800251
0.117430761736
0.162716088692
0.0831069267749
0.0832718582413
0.0729794353777
0.0738309632028
0.0861604721235
0.0863744990238
0.0857207567033
0.0859472004005
0.0737616796846
0.163872353581
0.120720403717
0.120459005004
0.122559310409
0.122260338898
0.16474042378
0.0741542250746
0.0871175565618
0.0873574478281
0.0865978651395
0.0868484388612
0.074056082261
0.075043155335
0.0898246445459
0.0900937650258
0.0892335176899
0.0895443882287
0.0749630181357
0.166032473944
0.125054426032
0.124597927582
0.163282581509
0.118752111485
0.118348353479
0.120113412003
0.119715346326
0.163526008923
0.0743867395307
0.0879652816922
0.0881247307782
0.0875733426745
0.087784334051
0.0743368878931
0.165098993352
0.123096101357
0.122843594408
0.124201214076
0.123920044841
0.165016701085
0.0745997408189
0.0886281958629
0.088888160057
0.0882776962029
0.0884371548875
0.0745258463565
0.0730367629988
0.0835076595436
0.0837904949115
0.0707950648363
0.0714961519914
0.0715534850852
0.0840859712435
0.0843555322835
0.0732716428801
0.073343810093
0.084539774445
0.0846856171937
0.0715512330741
0.0716037335584
0.0708357724483
0.084820925076
0.0849739976242
0.0734551385048
0.0735232678592
0.0851910278263
0.0854599045516
0.0714623331839
0.07105675279
0.0710824126418
0.0710470864637
0.0710460283475
0.0714658305935
0.0715166611419
0.0710618008458
0.0710519242448
0.0710752737019
0.071072203702
0.0715411177655
0.0715627856019
0.0710840171831
0.0710761522106
0.0711095890592
0.0710975413277
0.0715827801763
0.0716442425941
0.0711323694172
0.0711195769992
0.071139508746
0.0711350708122
0.0716604743938
0.0717413775041
0.0711642164431
0.0711503310738
0.0711738288584
0.0711719640599
0.0717645951406
0.071765560141
0.0711649771341
0.0711728041431
0.0711609769587
0.0711608820486
0.0717572728057
0.0717674340793
0.0711670668394
0.0711606372007
0.07122005004
0.0711947521123
0.0717971547057
0.0718952622515
0.07122521115
0.0712252735214
0.0712220823092
0.0712259048874
0.0718974603857
0.0708757647703
0.0705976651944
0.070704975231
0.0707281811992
0.0707259538232
0.0706678179703
0.0705167348463
0.0703769632369
0.0703215575407
0.0702949805924
0.0702699858685
0.0702667784102
0.0702467447116
0.0702392815956
0.070232527703
0.0702327852523
0.0702325760984
0.0705726502802
0.0702944344319
0.0703041534457
0.0702238529031
0.0703231392872
0.0703464453629
0.0702447654542
0.166324316538
0.167002284402
0.0706101378878
0.0708482650885
0.0708622876948
0.0705858113486
0.167008152247
0.0709735293463
0.070950326849
0.0710191051285
0.0709801251065
0.167146616589
0.0705982831456
0.0708745946082
0.0708910362281
0.166008005856
0.0753174335011
0.0751784969485
0.0763089966524
0.076037292763
0.166966530746
0.0757164190526
0.0753886384276
0.166065785594
0.0709660293165
0.0719391328653
0.0720085265953
0.0718887372357
0.0719089197569
0.0709564483517
0.0710072742432
0.0720318445258
0.07209717579
0.0719974138507
0.0720145794303
0.0709929140266
0.167094740909
0.0759404244675
0.0757551870314
0.166159797765
0.126125785698
0.125965682087
0.128962761235
0.128859314933
0.166936782639
0.127316921767
0.126960991729
0.166657105982
0.167193224181
0.127684610125
0.12750941907
0.126411872371
0.126269431842
0.166015413487
0.0752664697521
0.0906424192444
0.0907948712013
0.0903175822073
0.0904902857336
0.0752236637051
0.0762249015659
0.0932650779482
0.0934499108134
0.0927837163258
0.0930585546445
0.0761357204711
0.166919955636
0.128715440818
0.128468543001
0.075621173193
0.0914270364543
0.0916935459331
0.0909594727556
0.0911541202401
0.0754911327221
0.166257238005
0.126686291547
0.126542726773
0.128173283074
0.127893012632
0.167190432372
0.0758553201349
0.0922342362369
0.0924918005469
0.0918637781882
0.0920331645457
0.0757941361589
0.0718890573268
0.0712185280493
0.071217990226
0.071229878763
0.0712212592763
0.0718935482871
0.0719851996146
0.0712584325297
0.0712496675249
0.0712578897527
0.071260793767
0.0720060984175
0.071984575088
0.071253875653
0.0712547006011
0.0712755584185
0.0712633930241
0.071994466017
0.0720507481934
0.0712922002774
0.0712853440071
0.0713056362614
0.0713019189354
0.0720735571215
0.0713843630177
0.0706765458876
0.0707346720044
0.0707205461316
0.0707213868906
0.0706803442335
0.0706699010677
0.0705693633106
0.0705394595084
0.0704254163607
0.0703987670754
0.0703287687917
0.0702788600127
0.0702472100631
0.0702360278429
0.0702385783401
0.0702603124444
0.0706208868792
0.0703710696589
0.0703938630593
0.0702694439157
0.167185251768
0.169332098173
0.0706488918194
0.0709013764095
0.0709122744133
0.0706295527594
0.167933156225
0.0710707840689
0.0710300961665
0.0711035183818
0.071070257436
0.167880390638
0.0706396302792
0.0709187758403
0.070926457445
0.168239564849
0.0766859399308
0.0763939780485
0.0778763718181
0.0774180027987
0.168357668707
0.0769425863515
0.0767710806213
0.168272988978
0.0710634020449
0.0721575395674
0.0721907656941
0.0721098573975
0.0721564110273
0.0710472570518
0.0710986274015
0.0723222778116
0.0723995656671
0.0722072791044
0.0722805075628
0.0710850772744
0.168059479702
0.0772666267611
0.0769908524087
0.167654143139
0.129315341373
0.129070330874
0.132515433713
0.132250243525
0.169107919671
0.130632852614
0.130517936033
0.168051424017
0.167869242546
0.130870527873
0.130747936616
0.129985270614
0.12969319362
0.168077173968
0.0765921944203
0.0941418445209
0.0944162243691
0.0936362077458
0.0938730982569
0.0764942086442
0.0777877059382
0.0970604840122
0.0973211300693
0.0962238484438
0.0966160640604
0.077596838581
0.168789512147
0.131884380073
0.131440373335
0.0768926393645
0.0950666616234
0.0951813770096
0.0947070855726
0.0949245215198
0.0768382534225
0.168220054553
0.130393809891
0.130224579956
0.131172329536
0.131007019783
0.167919137061
0.0771395930033
0.0956322367691
0.0959029344184
0.0952934652291
0.0954310303162
0.0770498025094
0.0721277537194
0.0713117923899
0.0713079355438
0.0713346757589
0.0713292015853
0.0721460706718
0.0721621783031
0.0713482138657
0.0713423341419
0.0713628861396
0.0713553046333
0.07217341734
0.0722219422386
0.0713665590579
0.071369424219
0.0713868058788
0.0713777863063
0.0722468019423
0.0723709491274
0.0714113728753
0.0713991834602
0.0714212465368
0.0714191115573
0.0723975792834
0.0707888128519
0.0707215415602
0.0727471911815
0.0720122522053
0.0710638647406
0.0709768459657
0.0744499797693
0.0844633549187
0.0706761923022
0.0707435098183
0.0706920273905
0.0705903338976
0.0704578859787
0.0703607379257
0.0702973314361
0.0702649003867
0.070242029349
0.0702377921981
0.070252244227
0.0702818283748
0.0706599786989
0.0704178465677
0.0704463016671
0.0702962727323
0.169405866206
0.169079562243
0.0707069535258
0.0709284439262
0.0709295762418
0.0706739532257
0.168906274307
0.0711627115274
0.0711028827092
0.0711336546387
0.0711639629946
0.169539002385
0.0706906425598
0.0709161973381
0.0709054311673
0.16874350204
0.0779840834325
0.0779006780492
0.0790052747107
0.0787632481138
0.169898591744
0.0783271058735
0.0780313570787
0.168524089931
0.0711354716418
0.0723363193237
0.0724536880964
0.0723781792763
0.0723299462368
0.0711152075572
0.0711303760277
0.0724964197417
0.0724844882064
0.0725304629726
0.0725336957171
0.0711511300089
0.170024963664
0.0787229807193
0.0785731170086
0.169365667696
0.132882377162
0.132730133363
0.134656540334
0.1346557722
0.169164582157
0.133113545731
0.132942492385
0.168543041527
0.169870408042
0.133923332594
0.133616155387
0.132948897594
0.132941613011
0.16913412507
0.0779486614181
0.0976655919341
0.0977976205182
0.0974676351384
0.0975694256722
0.0779190279518
0.0789564324075
0.100048356963
0.10020227926
0.0994829955903
0.0998040731311
0.0788742440838
0.169458455038
0.134586584491
0.134416311759
0.0781829284944
0.0982680851411
0.0985169155538
0.0979481006304
0.0980996982784
0.0780964432143
0.16846976557
0.132943174687
0.132959386438
0.134243822456
0.134100331071
0.170002347058
0.0787137789062
0.0993469209467
0.0993852741573
0.0989646344616
0.0992627321373
0.0786929208375
0.0723524386364
0.0714141731536
0.0714144935804
0.0714138042859
0.0714124871814
0.072336143222
0.0723504073013
0.0714274472104
0.0714214087853
0.0715053256077
0.0714550138384
0.0723849804383
0.0725449845602
0.0715255395022
0.0715303280673
0.0715080076592
0.0715196179992
0.0725429685024
0.0724780412892
0.0714470743768
0.0714692235569
0.0714501908365
0.0714458440688
0.0724783620833
0.0707734691308
0.070771083777
0.0889895458065
0.086848733905
0.0707601099638
0.0707648354428
0.0882067698216
0.0708710868797
0.0708727895221
0.0706813034006
0.070732596311
0.084202440037
0.070810169369
0.0707648746203
0.0865888147598
0.0707106376795
0.0707381075858
0.07076720237
0.0707614285152
0.0707697151813
0.0707796344508
0.0887193246742
0.071722902237
0.0717407675253
0.0708322762936
0.07086409328
0.0879233788409
0.0708063968569
0.0707932864189
0.070759134823
0.0717276326725
0.0717391970621
0.0884665722206
0.0709504091512
0.0709396112808
0.0708623461733
0.070866093457
0.070964922757
0.0709665040384
0.0875663886265
0.0716364992513
0.071698885928
0.0715469300967
0.0715767246847
0.0871569048232
0.070753119979
0.0707905144983
0.0707854464249
0.0857732783398
0.0708276873123
0.0708258781655
0.0708443022571
0.0709078622692
0.0708875212773
0.0709545073344
0.070935816926
0.0708567586076
0.0708175220323
0.0708143328829
0.0853738821303
0.0707827109618
0.0707863457572
0.0707971765122
0.081727271405
0.0707761138766
0.0708299872046
0.070776090539
0.0707742124396
0.0707772465601
0.0863368938393
0.0715590957779
0.0715504184366
0.0715007204267
0.0715392346991
0.0860740065252
0.0708993777464
0.0709196921646
0.0708408421697
0.0708325629331
0.0709072213385
0.070887359625
0.085000873836
0.0713773216132
0.0714222670825
0.0714005371804
0.0713628836867
0.0847169243707
0.0831027402968
0.0708488945528
0.070835706482
0.0707879113328
0.0707787889377
0.0707914988618
0.0708486749587
0.0708161035545
0.0708071186232
0.0839061101606
0.0713705982502
0.0713959420404
0.0707980302855
0.0708032988644
0.0708575909758
0.0707924198458
0.0707247572155
0.0812574234763
0.0706948291769
0.0707088626391
0.0706958117187
0.0707961105863
0.0707360532494
0.0706973316517
0.0710037446683
0.0708574287649
0.0827535459579
0.0708209194661
0.070857485247
0.0708412329041
0.0712760026788
0.0713142922604
0.0835266943411
0.070864882607
0.0708491598502
0.0708450553071
0.0708441102228
0.0708218860144
0.0707976913751
0.08244082336
0.0713673454918
0.0712892504426
0.0714675341567
0.0714580626385
0.0821043516995
0.0708385723696
0.0708825977948
0.0708943510018
0.0794749798362
0.0708885572547
0.071006753628
0.0707992003482
0.0708702555382
0.0709040286267
0.0718048153716
0.07129364205
0.078285463635
0.070681614431
0.0707052291012
0.0707188467677
0.0708071549571
0.0707470127044
0.0707118588411
0.0807099415937
0.0716291968924
0.0715407115892
0.0709786497396
0.0709202222545
0.0710296531729
0.0721549171575
0.0718661172172
0.0801801704762
0.0711156821495
0.0712088696849
0.0709652459208
0.0708841087607
0.0712424534764
0.0712364520671
0.0766729176101
0.072941497778
0.0724650231876
0.0893275082674
0.0707552952531
0.0706328654272
0.0704880085288
0.0703784182588
0.0703157459779
0.0702743815158
0.0702571231826
0.0702459580858
0.0702468957948
0.0702736240118
0.0703183114969
0.0707270565715
0.0704844826593
0.0705034809077
0.07033418901
0.169138935845
0.171219908481
0.0707258211544
0.0708918722575
0.070868834404
0.070735217569
0.170052027103
0.0711374103452
0.071146134725
0.0711011179962
0.0711168474277
0.169715442568
0.0707309369881
0.0708355028017
0.070839523714
0.170523825336
0.0794751514037
0.0790431561804
0.0808351943137
0.0803366504719
0.170437398797
0.0798179584134
0.0795597989597
0.170699659286
0.071148835628
0.0726490948561
0.0726259832206
0.0724950523065
0.0726392774136
0.0711561219944
0.0711004608845
0.0728325909043
0.0729171505441
0.0726386809092
0.0727614187869
0.0711056494594
0.169869845475
0.0801874864668
0.0798939291369
0.169449744241
0.134755471351
0.134648898701
0.137438989775
0.13713960149
0.171190645394
0.136085336025
0.135960957678
0.170550826584
0.169604859237
0.136168784312
0.136148821823
0.135543437431
0.135177003571
0.170089968363
0.0793127925741
0.100884716277
0.101270241094
0.100335490364
0.100499205215
0.0791151059205
0.102794178683
0.102994916534