/*--------------------------------*- C++ -*----------------------------------*\
  =========                 |
  \\      /  F ield         | OpenFOAM: The Open Source CFD Toolbox
   \\    /   O peration     | Website:  https://openfoam.org
    \\  /    A nd           | Version:  8
     \\/     M anipulation  |
\*---------------------------------------------------------------------------*/
FoamFile
{
    version     2.0;
    format      ascii;
    class       volScalarField;
    location    "2e-05";
    object      T;
}
// * * * * * * * * * * * * * * * * * * * * * * * * * * * * * * * * * * * * * //

dimensions      [0 0 0 1 0 0 0];

internalField   nonuniform List<scalar> 
50271
(
350.000000093
350.000000319
350.000001294
350.000005293
350.000021758
350.000089589
350.000369093
350.001523986
350.006297899
350.025967603
350.106586399
350.048188548
350.097527205
350.218333477
356.5608536
350.706522551
405.4566267
368.464440007
359.849653091
350.405143092
360.092575941
351.266076681
352.715023016
350.951554989
351.856467266
374.49566426
364.691633712
350.130837931
353.608573187
364.383687896
373.773770495
352.855042131
363.929773157
355.738801675
385.823061442
369.777959454
350.938527581
348.663089872
351.118108514
369.275227712
358.858198419
361.476009088
360.285436542
354.658216219
351.980878971
353.930772112
359.098664
368.867485261
379.49129485
360.142781664
367.795305678
362.164654392
350.22838915
366.148760734
352.430622071
355.525801253
352.81966016
351.3488151
359.395093944
355.081237585
359.113664922
370.592367427
351.741152633
356.799519196
354.881226356
359.206282953
355.297959668
360.684179346
361.919869726
359.657337215
358.630700898
361.794122155
358.876656083
403.186220559
375.935842177
365.143100861
347.215048951
348.113631356
368.406874361
353.542167752
355.993703449
374.740276663
363.580065726
365.725998159
365.442320303
363.751079573
361.625964244
363.45489779
372.537124118
351.30191259
351.907024107
363.637566057
362.891219656
362.186863717
369.848572029
374.536730116
395.849697854
365.844440048
370.512443682
369.912937159
353.914558615
365.866910363
356.526287474
349.64596665
348.354499095
347.27849354
349.976970118
349.370284958
350.467237706
369.030123464
349.123450003
349.835443646
361.451248954
361.146841829
360.473012307
362.526065933
358.157187858
355.040194071
367.080304463
362.736037359
366.265566078
376.800299697
359.923371895
364.514861103
367.154622927
366.938609306
364.518027374
365.224959146
366.531158262
365.549803392
352.370676981
350.793945868
350.059343188
359.318956949
353.45248481
358.475042696
350.313395094
350.624458339
371.310883731
352.564676731
350.746602258
350.506154919
353.148866947
351.675172048
353.836784891
362.131653727
362.750460669
362.268057032
361.484478913
362.525311006
362.377064434
361.428816938
360.258058643
361.335691536
350.00002256
350.000057508
350.000187379
350.000606124
350.001969747
350.006387764
350.020653303
350.066339722
350.211868574
350.674799645
352.038646829
353.571480398
357.489844188
355.875075079
354.23237178
354.12339139
368.397777448
381.242355869
351.205649748
354.01043127
351.69872415
354.687911107
372.180792029
350.292259561
352.472704219
349.209825534
349.867855097
373.093887054
352.538297788
350.398132179
350.104705566
369.427105732
347.711855219
348.230617324
345.922935918
346.290272349
377.587033332
346.916313147
347.517735411
369.910972228
350.671699962
349.269776255
349.111075642
350.555974924
349.869180244
351.192486926
349.328414714
348.289335184
348.156522207
348.869483937
348.586848673
349.569774757
376.563504439
346.585148319
346.830425967
368.53370992
346.351094785
346.724686619
344.947957855
344.920633478
379.899631278
345.120759125
345.36505834
371.361530996
374.485565994
345.21438758
344.995977811
346.083557814
346.175685666
368.939233504
347.830053252
346.297229154
346.179926281
346.738902367
346.406830505
347.936121822
345.976885525
344.426447016
344.383791404
344.716362417
344.455950009
346.074711714
378.774323706
344.93994215
345.036930045
347.050946049
345.438778911
345.240859856
345.969875111
345.6097224
347.166001941
370.530706895
345.572387549
345.786382969
345.123987477
345.251685003
375.642938639
346.730756844
345.109365552
344.971934607
345.133093693
345.14686182
346.817816366
350.000283086
350.000608637
350.001833415
350.005352148
350.015563292
350.04455475
350.124931258
350.34216094
350.898568103
351.924474636
352.650693551
353.353810108
351.059873568
350.633002685
349.820977253
352.056731981
350.607102297
352.218418179
349.987456874
349.998537723
350.342784398
382.491948334
401.18679118
349.847212404
402.423585717
419.013830387
349.87754555
349.907459043
349.70158155
350.039567263
349.521179299
349.582503749
349.836723584
390.842825228
348.932345198
349.138218313
348.797899441
348.866238602
392.105601348
349.834430179
349.46672472
349.474570298
410.21860894
348.873704453
348.841476644
348.64060849
348.811266092
411.324291903
349.887949306
349.560765244
349.500145431
385.72371016
345.601451593
345.875139986
345.309481743
345.330583373
397.336770173
405.92709491
345.214203603
345.280374957
344.819205992
344.964487601
416.381171685
345.331253056
345.545180911
387.189691332
349.00344422
347.744462863
347.604251262
348.021061414
347.861338882
349.039607375
348.779342225
347.375069213
347.37354434
347.520259073
347.414689718
348.776820947
396.344216082
345.352091765
345.336713938
345.087532043
345.187352154
407.019826472
348.875323565
347.175289419
347.073307078
347.334130377
347.268906032
348.889632087
348.656022243
346.277038348
346.156031192
346.9235536
346.372941522
348.753357091
414.68340537
345.008560804
345.037159179
383.480314002
345.075766482
345.012581165
347.741538794
347.471080222
399.702126699
403.454390487
348.210762125
348.047495618
351.446877435
351.251987237
418.250177518
345.756509952
345.524875675
389.648557622
393.557407303
346.34707249
346.025082662
349.366888408
349.121935917
408.978739945
412.343865337
349.74341128
349.58393231
345.140775532
345.071245224
384.51302687
345.729096271
344.33250555
344.30491823
344.364305896
344.359877861
345.809068808
345.320459714
344.619907177
344.671673557
344.56832597
344.579592739
345.314329871
398.433861009
347.269272563
347.098888583
348.614764072
348.333079643
404.547278605
345.218444566
344.684266983
344.790642259
344.687391048
344.677604698
345.229813435
344.824817403
344.98460638
344.958727084
345.005831287
345.011236698
344.906313578
417.479951631
351.028239306
350.710422238
345.390420777
344.225902046
344.228213199
344.282403212
344.233169592
345.460868146
388.504769915
345.35369309
345.268948672
346.940631378
346.701424104
395.200369677
345.361851819
344.516621257
344.55094898
344.285560581
344.412925289
345.352897242
345.113176903
344.811474357
344.86890964
344.818758646
344.808861265
345.134201581
407.942951984
349.029855267
348.900815746
350.223752016
349.87995685
413.365181896
345.011310991
344.851859357
344.980441138
344.865511322
344.836368401
344.961838848
347.551281982
347.527804809
346.151831639
346.204594083
347.51153156
347.476786174
347.371517755
347.205814086
346.600285087
350.001927684
350.003489925
350.009787338
350.025922815
350.067770759
350.172478057
350.423165261
350.971843373
350.980438301
351.416773328
351.621875315
351.585601119
351.920002634
351.549982904
351.85215798
350.713395332
350.114430424
349.8955821
350.013178713
350.096883983
350.103045286
419.97241641
438.65725526
350.144130115
349.497633624
349.562499662
349.922418305
429.224222572
348.956954388
348.667991749
348.735985068
348.940787206
430.408132411
350.026868393
349.665548389
349.679182776
424.030791969
344.775416824
344.866062615
344.083118773
344.281964114
434.488832517
344.646024887
344.759351655
425.638298619
348.877899467
346.261062501
346.122917266
346.198126298
346.263115339
348.758315957
348.834652354
345.726183316
345.536467117
345.998837616
345.750147507
348.916084024
433.41394364
344.321545085
344.565122492
421.177026578
351.9760203
351.699037547
356.607224938
356.077616118
437.192023412
353.790510092
353.479072025
428.056870345
431.465509221
354.311385179
354.094114943
352.423955155
352.186406499
422.519890676
344.837372244
344.783176539
344.709120732
344.959143524
344.954048123
344.875168623
344.166282552
344.118649015
344.106945552
344.06751976
344.089030896
344.235234211
435.774995709
355.574475996
355.137910076
344.724386403
344.587737213
344.427674355
344.625519527
344.638523722
344.762960779
426.864154913
353.149714247
352.793944661
354.834472799
354.562886445
432.442969101
344.364751928
344.171337611
344.093595652
344.419148157
344.280651499
344.453561841
347.591487079
347.641420808
345.79760648
345.684085761
347.479545391
347.528881502
347.356780639
347.41825556
345.626236504
345.882286534
347.696800236
347.770340987
347.868867652
347.904541157
346.196855915
346.242433213
347.919789872
347.899894878
347.836034954
347.75364859
346.279496534
346.253154616
347.660530077
347.596179897
350.009171565
350.014015497
350.043531959
350.037058632
350.108953765
350.089213107
350.238479566
350.210831443
350.508762882
350.476615863
350.940637551
351.284212915
351.396095836
351.363151525
350.877837252
350.259589845
350.148255177
350.192868709
350.209282052
350.247772407
350.23140636
439.775587241
455.230274584
350.075983058
349.632936458
349.543511639
350.168660178
446.814017829
348.472827346
348.647114238
348.232690715
348.422788593
447.631585009
350.110517217
349.438940104
349.360634865
442.451660764
343.933051322
343.975337935
343.753612545
343.71436781
452.518921904
343.899387413
343.945682916
443.645925615
348.506406082
345.322262559
345.206214217
345.433604277
345.32457992
348.550887436
348.312461735
344.988654823
344.917146733
345.132307498
344.98696419
348.37352029
451.266772264
343.705078494
343.783421649
440.654439162
357.31519797
357.002163789
362.901864285
362.517356667
454.324159388
359.584489147
359.238719338
446.000848123
448.597742964
360.233832711
359.896122017
357.919006282
357.606279082
441.504591111
343.923830999
344.000568122
344.003203641
344.068521645
344.028732268
343.92347512
343.788305224
344.128761535
344.102256121
343.940774861
344.061124049
343.776730596
453.454678765
362.126681813
361.630988473
343.965301363
344.141041004
344.090979354
344.023610885
344.085401795
343.975989069
445.012456271
358.795879669
358.315257287
361.151923996
360.657943732
449.806544934
343.733703615
343.939497049
343.931152648
344.002948934
343.951619556
343.764379981
345.364638814
347.237439516
347.287106413
347.15749947
347.186479804
345.342002402
345.313048728
347.122400494
347.144137027
347.047191161
347.087536419
345.27322838
345.085039939
346.962518224
347.002246546
346.87596188
346.907691179
345.023816111
345.0062287
346.839638195
346.853681555
346.722607531
346.791425539
344.985495791
350.034472869
350.10783852
350.112326939
350.263919356
350.523353196
350.900575932
351.176996655
351.275620712
351.257084725
350.932956624
350.43989079
350.22857249
350.257698245
350.026675541
350.22394085
350.165847363
350.238892493
456.09152295
469.03804045
349.847702393
349.270926141
349.1651115
349.973737996
461.984239329
347.916628926
348.129421949
347.788630003
347.879098008
462.742256989
349.910575132
349.093930754
349.031185805
458.679303762
343.542173687
343.643952686
343.621415458
343.526536276
466.133874399
343.690833417
343.558888608
459.605424833
347.979357277
344.619922203
344.624537306
344.797089959
344.61847482
348.052569528
347.824285073
344.406420077
344.405794489
344.593165386
344.425066366
347.853993143
465.120332332
343.531123151
343.679147792
456.946464671
363.665461985
363.307153737
369.857314651
369.407568605
468.173378186
366.341103696
365.905065215
461.209222625
463.501704717
367.082873249
366.728639843
364.434962396
364.032636484
457.799201263
343.543708747
343.978984916
343.982957363
344.05371087
344.007047522
343.56569992
343.589860424
344.376137848
344.447178457
344.231846789
344.290836497
343.554397283
467.189094994
368.79049293
368.240592872
343.687616836
344.245499766
344.28413224
344.007311033
344.11193782
343.629852049
460.420217523
365.392594739
364.875711675
367.786269041
367.419202366
464.276310832
343.553777335
344.236229882
344.227293246
344.281347502
344.267855781
343.623440315
344.697445915
346.543175703
346.61880212
346.4472483
346.482650075
344.644039494
344.642075001
346.407051543
346.418598912
346.347502749
346.381482728
344.644515501
344.522734183
346.266814804
346.313111322
346.196329494
346.230679578
344.457097617
344.412214757
346.170131808
346.171382384
346.124713383
346.155711758
344.416160445
350.276596903
350.251145504
350.538162585
350.869361872
351.108088572
351.183681569
351.178118812
350.948266837
350.520665987
350.282816056
350.204045484
350.205053585
349.80622681
350.091415555
350.025024943
350.167160711
469.706354278
479.07789512
349.678069018
348.970149941
348.908400145
349.765531164
473.460673086
347.557361511
347.732849365
347.44955262
347.537244056
473.577082477
349.720163368
348.856573054
348.792596517
472.15675483
343.752825438
343.62096356
343.659925786
343.759927685
477.815662894
343.604522376
343.763292977
472.963679524
347.599840726
344.347121366
344.162552407
344.375125756
344.371665836
347.677966289
347.50138492
344.188412073
344.104599342
344.140033865
344.12558773
347.523221145
476.301614103
343.632677842
343.575725765
470.351073315
370.581506626
370.226076079
376.338827498
376.138519655
478.956193954
372.861532688
372.694773667
473.461994291
473.975988096
373.27951994
373.014141866
371.63037314
370.993676683
471.140849298
343.696856548
344.662139251
344.840764707
344.502118999
344.565711986
343.644680729
343.773104164
345.635284855
345.657317729
345.368953035
345.590595846
343.823537806
478.625550138
375.870351691
375.258180688
343.688210757
344.949969076
344.917069334
344.986496229
344.98448206
343.740949653
473.420928559
372.506398337
372.216183796
374.323768739
373.677795744
474.844644771
343.598431763
344.965373187
345.084723103
344.868232879
344.903898162
343.595845247
344.370798977
346.051863945
346.078696973
345.99035214
346.023930716
344.376691616
344.298959482
345.894127276
345.946015211
345.788120643
345.840062148
344.229523951
344.135305107
345.769972799
345.78096519
345.738731917
345.7419893
344.117559822
344.203498673
345.745002309
345.750625633
345.632960748
345.703206958
344.167400824
350.601777438
350.500238476
350.832135099
351.023865456
351.107390238
351.112473594
350.949822
350.587969513
350.321459819
350.24072609
350.182231617
350.125730999
349.616973551
349.357833271
349.960801385
349.878213999
350.076828308
479.223558464
487.894130839
349.403565111
488.561702697
497.380384761
349.253586712
348.695512908
348.586872425
349.554102995
348.398737695
348.356960046
349.32200681
484.177632388
347.132644375
347.355968858
347.075071221
347.124916658
484.160702163
349.475160788
348.510586941
348.444185185
492.225272809
346.926489792
347.046392685
346.826420518
346.902523589
492.640290317
349.286126252
348.331487062
348.290943612
480.917826996
343.609455045
343.61434539
343.695143976
343.667654345
485.446247906
490.17237734
343.751809228
343.693825451
343.783490728
343.777110935
494.801512574
343.707533347
343.625351857
482.313790443
344.030656564
343.95793244
347.24772637
347.091759533
344.017183223
344.048061524
484.757427231
343.667286979
343.664867034
343.623526733
343.710914736
490.693811934
346.955417065
344.054635502
343.944249825
344.068258225
344.101405079
347.008284526
346.873356177
344.079718156
343.997995319
343.934760611
344.05538533
346.902228377
494.080603
343.672271135
343.607165281
479.495054698
376.71719156
376.519122676
382.083323119
381.663331363
487.159537663
489.134788209
382.909373762
382.498507912
388.257794508
387.722374136
496.604884022
379.416311854
379.249447735
484.054823604
484.16257956
379.730978098
379.567485158
385.010067386
384.635880483
491.74273247
493.072840493
385.635911317
385.332402291
377.466845715
377.017607318
480.033250373
345.666405855
345.709967772
343.600092783
343.687402183
347.891907393
348.072649019
347.509758489
347.714591314
343.683293115
486.299872292
381.222991205
380.743654107
383.576748957
383.250569029
489.661864641
343.752499766
348.659123971
348.830259064
348.252370154
348.462535226
343.725001958
343.791890356
350.827583313
351.063180867
350.339868035
350.612761092
343.805120278
495.729624795
387.205412806
386.666779225
483.53242871
378.932093312
378.182741648
380.317370371
379.959005982
484.300768881
343.639191449
349.266233917
349.414940966
348.982386
349.130245056
343.671505955
491.222877046
384.281004376
383.919953107
386.2498656
385.926069563
493.538539198
343.612817312
349.835863138
350.037924411
349.552511806
349.69235356
343.600239758
343.592303643
345.823641458
345.992779943
347.184321977
343.966101699
344.01139224
346.230567461
346.542539443
343.664586667
343.699736148
346.698645128
346.80897296
343.998892061
344.016237645
347.114440313
346.904543819
346.997330583
343.65181471
343.656861927
347.138047984
347.318095076
343.976128339
345.460530238
345.546253953
345.365767877
345.394223395
343.960098623
343.981748173
345.351836925
345.352282421
345.331796921
345.344264345
344.006096434
344.011530474
345.329228794
345.325069131
345.315215728
345.32607322
344.019299723
344.030867257
345.307623661
345.305711153
345.288784201
345.294560938
344.038149656
344.112445903
345.304798445
345.297675761
345.263467349
345.294440459
344.117676096
343.998569419
345.172474149
345.221861505
345.116579649
345.138660571
343.960469113
343.941122137
345.102855618
345.099410556
345.166283573
345.136716509
343.978379981
344.072807904
345.138635498
345.162966768
345.05982764
345.102177755
344.038619946
351.354579987
350.805580535
351.020657494
351.067038426
351.062780868
350.94632084
350.642423353
350.366837182
350.254852705
350.225038709
350.177067922
350.20420104
350.163137863
350.145117513
350.10654504
350.026105128
349.965959311
349.211706214
349.795942529
349.735967976
349.973977448
349.71376065
349.694112811
349.959327045
497.920715619
504.880444512
349.097931207
348.246131488
348.201429673
349.17618364
500.805749233
346.661666236
346.767466493
346.512298145
346.62392163
501.196391151
349.133585528
348.159782911
348.123236571
498.653716952
343.62685792
343.751168519
343.739856107
343.738633721
502.845820701
343.835749063
343.618460078
498.976026621
346.695345517
343.958051986
344.024880711
343.956595062
343.924322554
346.731422992
346.558093179
343.931825576
343.966295742
343.968431492
343.936261368
346.598321957
502.313823331
343.752663127
343.808746605
498.19530031
389.048130032
388.7165408
393.760512554
393.452880559
504.262179345
390.702898268
390.18932059
500.104059972
501.488275707
391.304279042
391.013589728
389.498830148
389.292750733
498.398959416
343.65571004
351.474006858
351.565719412
351.26654551
351.386874144
343.701307945
343.71224769
353.599495532
353.784605673
353.229442028
353.439560884
343.71753411
503.505525405
393.070501055
392.541372787
343.760299023
352.054629772
352.374211965
351.658102103
351.786613218
343.65738954
499.395848722
389.835785301
389.661403513
392.056528056
391.634180591
501.854316932
343.760574769
352.826648436
353.015999082
352.538201521
352.680477692
343.776183797
343.929854363
344.995801868
345.022337045
344.979226427
344.979199609
343.91842388
344.018083372
345.003691404
344.998752039
344.955957079
344.990845064
344.037127563
343.927278344
344.901211337
344.920849842
344.890554278
344.897771088
343.933288834
343.932263862
344.865830573
344.880166821
344.833290305
344.851503
343.941361042
352.35065611
350.96146265
351.07901078
351.050741987
351.053340496
350.971332837
350.950918103
350.750071767
350.68940001
350.459580335
350.404558599
350.263577218
350.1752289
350.138043339
350.13020022
350.085849328
349.953312487
349.057290003
349.675233196
349.656315013
349.9431446
505.503969721
513.239810061
348.947636312
348.08155883
348.042262771
349.016650893
507.960022752
346.388459718
346.47612097
346.190703528
346.311868938
508.050356408
348.976466756
347.995318003
347.959816117
507.558271646
344.006542993
343.797361563
344.260313615
343.914420728
510.13712549
343.793483809
343.984652367
507.75639149
346.432322801
343.990193377
343.917706064
343.979993607
344.01963296
346.459830051
346.23850899
344.027611929
344.092942226
343.914930032
343.98141343
346.282685037
509.166380108
343.833776745
343.758870006
506.400109937
394.449411843
394.052841804
399.668575656
399.234601621
512.380290618
396.312882646
396.147306346
507.901324742
508.224157827
396.697902445
396.487942586
395.415159571
394.975804189
507.17789277
343.959718264
354.566413482
354.866169638
353.992102423
354.26541018
343.88282303
344.248642625
357.076943149
357.320783238
356.114434508
356.566107918
344.05618467
511.355955848
398.608517337
397.816607065
343.845972651
355.241090243
355.271017399
355.099115244
355.209636757
343.922091906
507.838123649
395.978629027
395.751011077
397.302751422
396.963681057
508.566583993
343.77406675
355.565453636
355.80356715
355.31874931
355.406396741
343.748049476
344.003582745
344.822399828
344.82490162
344.822380479
344.832909364
344.023181095
343.958129569
344.790169326
344.810443886
344.738295612
344.765695243
343.930575974
343.920561614
344.689009759
344.718394043
344.685664918
344.69394881
343.946802615
344.088848822
344.687897411
344.685689953
344.651957536
344.682071653
344.116607942
351.180223836
351.043884097
354.950368211
353.560248335
351.717780668
351.530726105
358.093330724
373.94705943
350.960063003
351.096577542
350.993970835
350.792044759
350.527183221
350.328687503
350.201738704
350.150870526
350.124885545
350.118974158
350.087243969
349.931891701
348.918771205
349.636075779
349.633575122
349.932782701
513.7867608
516.132777658
348.8621581
347.911876983
347.873369798
348.904014703
514.458158017
346.062361594
346.117227205
345.777224031
346.022294588
515.701572541
348.88310479
347.793857593
347.734164956
513.724498032
343.979996245
344.175962865
344.023073408
344.240037021
517.105234691
343.951889542
343.932283954
513.47715429
346.053653636
343.797082566
343.908485593
343.994140728
343.803039475
346.081949027
345.813571704
343.908131391
343.692302594
344.047688826
343.997292297
345.93226506
517.189141946
344.275060828
344.237080397
513.989014028
400.361451871
400.029105222
403.752376372
403.744240471
516.170612471
401.260334333
400.926060251
513.696031652
516.594233442
402.523999036
402.053378518
400.701171322
400.588648258
513.99341228
344.041589447
357.511578836
357.605451469
357.414096627
357.463681355
344.109743826
344.093780313
359.52903747
359.532815255
359.149175993
359.431310664
344.235878063
516.556306021
403.647072908
403.431093269
343.872715635
357.884051918
358.122556053
357.701191201
357.788685374
343.894245841
513.449989511
400.848671782
400.792641935
403.113715212
402.825735326
517.062032437
344.331032959
359.113829839
359.091755726
358.702683243
359.06537133
344.363214351
343.908261874
344.537270059
344.584111752
344.468941618
344.496635165
343.841973997
343.790575451
344.449663811
344.460673722
344.566629864
344.475977896
343.811433287
344.065229547
344.590178147
344.613138916
344.479525638
344.546854877
344.042504851
343.831790824
344.30116895
344.379645665
344.218169491
344.255313072
343.76756347
351.152102551
351.139623952
380.16260556
377.3135994
351.034249777
351.000573644
379.181065614
350.564866599
350.465585266
350.965774656
351.071450025
373.561155939
351.173164978
351.058464449
376.978148846
351.030016527
351.085846546
351.139870548
351.093579762
351.11967817
351.157378998
379.830417336
350.570595905
350.540866455
350.600875173
350.579756871
378.791242372
350.833190238
350.841087494
351.005309199
350.703295043
350.679248419
379.516361665
350.063208137
350.081575022
350.473573426
350.515230066
350.183214167
350.235715209
378.272635703
350.641457898
350.701488088
350.630202493
350.611303128
377.705791556
351.003716351
350.864211451
350.888924033
375.828419811
350.708116893
350.611480808
350.596062122
350.249296069
350.259407905
350.246921304
350.248557868
350.587344978
350.811066367
350.707624144
375.214801335
351.16503373
351.157668678
351.182838214
369.807479651
351.13320727
351.219902465
350.904172412
350.931600436
351.09350455
376.64508861
350.779057334
350.703601952
350.75855591
350.783112244
376.276564946
350.316773055
350.412865651
350.685324534
350.699198303
350.419188361
350.415567586
374.705730825
350.687531921
350.683673916
350.84620422
350.711632377
374.31338826
371.879586936
351.021745305
350.886985614
351.126333828
350.975119472
351.028869035
350.394145819
350.400192214
350.72990495
373.113383658
350.896518017
350.887236559
350.738646484
350.404975344
350.553016448
351.150320318
351.023171301
369.094167021
350.998151434
351.026142647
350.99906208
351.185375979
351.067686643
350.999225166
351.469369657
351.072102631
371.355679747
351.115343497
351.211254509
351.24958348
350.851157329
350.87079347
372.533517708
350.622908862
350.643005216
350.936491126
350.974282806
350.653656414
350.652935188
370.892444497
351.179690727
350.926753247
351.531324102
351.430817581
370.387988774
351.252749064
351.286983592
351.328886605
366.472886946
351.294323887
351.511115458
350.692155956
350.909159672
351.183869515
353.112889822
352.090186476
364.666304995
350.967752671
351.003921453
351.035452856
351.174750724
351.053424356
350.996113051
368.270739485
352.076243181
351.771127921
351.374060507
351.063538721
351.329963677
353.437264676
352.697147583
367.497094711
351.555135871
351.794791925
351.449833406
351.282742029
351.893507898
351.922482142
361.976928501
355.214500883
354.213003403
380.58644353
351.115276631
350.876891816
350.588031156
350.366616344
350.236836085
350.157711
350.139826038
350.130699213
350.127500781
350.099404586
349.940841728
348.839556213
349.634233896
349.600345105
349.933095893
516.43180145
524.713823925
348.670394667
347.654907539
347.545921188
348.800154905
521.768224802
345.570109805
345.747927094
345.285698812
345.481103265
521.401817561
348.734248317
347.415673307
347.348641946
520.233707841
344.248869421
343.926800613
344.869903667
344.43315968
523.018238033
344.378600535
344.279616946
521.263677122
345.645092558
343.813334753
343.640851958
343.647480979
343.801054645
345.719707651
345.327272197
343.708656394
343.629592176
343.616921111
343.646174516
345.401706384
521.981449114
344.347366343
344.370482793
517.301316631
403.955639265
403.762540527
409.377151836
408.859350183
524.456239186
407.185010325
406.820945622
521.948303323
521.321597819
407.426422861
407.355168778
405.4115397
404.662913552
518.76292793
344.082804133
360.047722884
360.550924164
359.529999416
359.612783865
343.911274872
361.788991409
362.002253801
344.615027697
523.92837111
408.477648574
408.036267173
344.35276973
361.050257221
361.280666649
360.720659044
360.847857653
344.309919603
521.823141277
406.253903581
405.839914143
407.636313447
407.475885636
521.449540607
344.340805828
361.533125669
361.63367631
361.391206214
361.46153052
344.354431393
344.7766367
362.210750907
362.427299958
351.114142338
351.059592924
386.296393406
343.652870191
344.250705735
344.214828699
344.302318362
344.306595237
343.763581161
383.805770638
350.949433711
350.8965791
385.093800807
350.140405408
350.084957905
350.99382874
350.962571627
383.336879652
351.062062358
351.013558532
351.067680667
343.812139759
344.25081913
344.28611753
351.023788417
351.04196819
351.076796835
385.911701207
350.387650049
350.412549072
350.273125115
350.155007734
384.793535264
350.599518646
350.631973136
350.915891501
350.376580846
350.360891042
385.446526004
349.547617732
349.569074241
350.103910755
344.124880367
344.182778835
343.741458666
350.504125916
350.504986137
384.16925456
350.933518976
350.661313719
350.693316309
350.121432625
349.584209618
349.609607424
382.22949387
350.333461279
350.288265506
350.253199233
349.783018579
349.805156087
349.63776041
349.730204119
350.203826461
384.492111371
350.483262456
350.406069057
350.456332749
350.40200038
381.912196241
351.096653629
351.056615142
351.06709355
350.727920358
350.755098739
350.974427656
382.875923835
350.449874699
350.458343982
350.537483715
350.476681639
382.538605454
349.819064796
349.833086086
350.302997712
350.530879955
350.582807514
381.142452918
343.588751756
344.082662926
344.100555727
350.982575292
350.784846957
350.816039567
350.315683646
349.854710903
349.906570757
350.001928513
350.028370348
350.430972922
381.56037788
350.606895357
350.597724709
350.44581384
350.042528225
350.04973097
344.14110643
344.109821463
343.591020279
343.721522636
344.106913048
344.13534629
343.989195912
344.038652989
343.696694856
386.621355768
351.008351947
350.701667156
350.461603882
350.300627717
350.212865074
350.157135839
350.146359482
350.146811703
350.144401575
350.089441316
349.904119559
348.594683583
349.527172279
349.454428
349.864004688
524.795012868
530.386716553
348.480859361
527.922679425
345.262545452
345.286532716
345.129337159
345.184883251
528.278360714
348.502588102
347.217039198
347.180559222
524.32838795
344.770679746
344.908246913
345.755345422
345.574473859
528.328245118
345.590734632
344.735436047
524.823003008
345.158500007
343.44703908
343.696848241
528.183755189
345.67782829
345.656955543
524.513373844
410.096003546
409.864123789
414.643177196
414.218169702
529.368641782
412.132632817
411.483658349
527.113526108
528.346357022
412.853989346
412.534627193
410.361856988
410.239406021
524.251498632
345.523317416
364.683159466
364.869894623
528.73806387
413.891153119
413.642229055
525.783416368
410.827900187
410.532859164
413.39284775
413.127289302
528.226566339
343.820813296
343.516414422
345.171886759
345.71329996
364.253460868
364.385994283
363.974196192
364.120827915
345.671923918
364.476255241
364.543528015
345.484862444
347.315789298
347.250563184
348.520008135
343.531172189
343.407814723
345.328507188
344.860269109
362.759346604
362.822343558
362.554005203
362.669746723
344.912411555
345.329227061
343.447492966
343.892286546
362.885229793
363.005322939
344.899991946
345.327169936
363.395818264
363.79210285
351.033400136
350.91844233
391.304069083